
     Program PWSCF v.6.7MaX starts on  6Dec2021 at  0:25:19 

     This program is part of the open-source Quantum ESPRESSO suite
     for quantum simulation of materials; please cite
         "P. Giannozzi et al., J. Phys.:Condens. Matter 21 395502 (2009);
         "P. Giannozzi et al., J. Phys.:Condens. Matter 29 465901 (2017);
          URL http://www.quantum-espresso.org", 
     in publications or presentations arising from this work. More details at
     http://www.quantum-espresso.org/quote

     Parallel version (MPI), running on    32 processors

     MPI processes distributed on     1 nodes
     R & G space division:  proc/nbgrp/npool/nimage =      32
     Reading input from au_surface.100.k.qe.7_7_1.in

     Current dimensions of program PWSCF are:
     Max number of different atomic species (ntypx) = 10
     Max number of k-points (npk) =  40000
     Max angular momentum in pseudopotentials (lmaxx) =  3

     Subspace diagonalization in iterative solution of the eigenvalue problem:
     one sub-group per band group will be used
     scalapack distributed-memory algorithm (size of sub-group:  5*  5 procs)

     Found symmetry operation: I + (  0.2500  0.2500  0.0000)
     This is a supercell, fractional translations are disabled

     Parallelization info
     --------------------
     sticks:   dense  smooth     PW     G-vecs:    dense   smooth      PW
     Min         185      74     20                18243     4618     658
     Max         186      75     21                18250     4623     663
     Sum        5949    2377    657               583927   147845   21081



     bravais-lattice index     =            8
     lattice parameter (alat)  =      15.7652  a.u.
     unit-cell volume          =    6655.8994 (a.u.)^3
     number of atoms/cell      =           16
     number of atomic types    =            1
     number of electrons       =       176.00
     number of Kohn-Sham states=          106
     kinetic-energy cutoff     =      30.0000  Ry
     charge density cutoff     =     300.0000  Ry
     scf convergence threshold =      1.0E-06
     mixing beta               =       0.3000
     number of iterations used =            8  plain     mixing
     energy convergence thresh.=      1.0E-04
     force convergence thresh. =      1.0E-03
     Exchange-correlation= SLA  PW   PBE  PBE
                           (   1   4   3   4   0   0   0)
     nstep                     =           50


     celldm(1)=  15.765191  celldm(2)=   1.000000  celldm(3)=   1.698670
     celldm(4)=   0.000000  celldm(5)=   0.000000  celldm(6)=   0.000000

     crystal axes: (cart. coord. in units of alat)
               a(1) = (   1.000000   0.000000   0.000000 )  
               a(2) = (   0.000000   1.000000   0.000000 )  
               a(3) = (   0.000000   0.000000   1.698670 )  

     reciprocal axes: (cart. coord. in units 2 pi/alat)
               b(1) = (  1.000000  0.000000  0.000000 )  
               b(2) = (  0.000000  1.000000  0.000000 )  
               b(3) = (  0.000000  0.000000  0.588696 )  


     PseudoPot. # 1 for Au read from file:
     /expanse/lustre/projects/csd622/tpascal/nano110/qe/pseudo/au_pbe_v1.uspp.F.UPF
     MD5 check sum: 9d7f43293ad2c663164586bc4b293ffc
     Pseudo is Ultrasoft + core correction, Zval = 11.0
     Generated by new atomic code, or converted to UPF format
     Using radial grid of  985 points,  7 beta functions with: 
                l(1) =   0
                l(2) =   0
                l(3) =   1
                l(4) =   1
                l(5) =   2
                l(6) =   2
                l(7) =   3
     Q(r) pseudized with  6 coefficients,  rinner =    1.900   1.900   1.900
                                                       1.900   1.900   1.900
                                                       1.900

     atomic species   valence    mass     pseudopotential
        Au            11.00   196.96655     Au( 1.00)

      8 Sym. Ops. (no inversion) found


                                    s                        frac. trans.

      isym =  1     identity                                     

 cryst.   s( 1) = (     1          0          0      )
                  (     0          1          0      )
                  (     0          0          1      )

 cart.    s( 1) = (  1.0000000  0.0000000  0.0000000 )
                  (  0.0000000  1.0000000  0.0000000 )
                  (  0.0000000  0.0000000  1.0000000 )


      isym =  2     180 deg rotation - cart. axis [0,0,1]        

 cryst.   s( 2) = (    -1          0          0      )
                  (     0         -1          0      )
                  (     0          0          1      )

 cart.    s( 2) = ( -1.0000000  0.0000000  0.0000000 )
                  (  0.0000000 -1.0000000  0.0000000 )
                  (  0.0000000  0.0000000  1.0000000 )


      isym =  3      90 deg rotation - cart. axis [0,0,-1]       

 cryst.   s( 3) = (     0         -1          0      )
                  (     1          0          0      )
                  (     0          0          1      )

 cart.    s( 3) = (  0.0000000  1.0000000  0.0000000 )
                  ( -1.0000000  0.0000000  0.0000000 )
                  (  0.0000000  0.0000000  1.0000000 )


      isym =  4      90 deg rotation - cart. axis [0,0,1]        

 cryst.   s( 4) = (     0          1          0      )
                  (    -1          0          0      )
                  (     0          0          1      )

 cart.    s( 4) = (  0.0000000 -1.0000000  0.0000000 )
                  (  1.0000000  0.0000000  0.0000000 )
                  (  0.0000000  0.0000000  1.0000000 )


      isym =  5     inv. 180 deg rotation - cart. axis [0,1,0]   

 cryst.   s( 5) = (     1          0          0      )
                  (     0         -1          0      )
                  (     0          0          1      )

 cart.    s( 5) = (  1.0000000  0.0000000  0.0000000 )
                  (  0.0000000 -1.0000000  0.0000000 )
                  (  0.0000000  0.0000000  1.0000000 )


      isym =  6     inv. 180 deg rotation - cart. axis [1,0,0]   

 cryst.   s( 6) = (    -1          0          0      )
                  (     0          1          0      )
                  (     0          0          1      )

 cart.    s( 6) = ( -1.0000000  0.0000000  0.0000000 )
                  (  0.0000000  1.0000000  0.0000000 )
                  (  0.0000000  0.0000000  1.0000000 )


      isym =  7     inv. 180 deg rotation - cart. axis [1,1,0]   

 cryst.   s( 7) = (     0         -1          0      )
                  (    -1          0          0      )
                  (     0          0          1      )

 cart.    s( 7) = (  0.0000000 -1.0000000  0.0000000 )
                  ( -1.0000000  0.0000000  0.0000000 )
                  (  0.0000000  0.0000000  1.0000000 )


      isym =  8     inv. 180 deg rotation - cart. axis [1,-1,0]  

 cryst.   s( 8) = (     0          1          0      )
                  (     1          0          0      )
                  (     0          0          1      )

 cart.    s( 8) = (  0.0000000  1.0000000  0.0000000 )
                  (  1.0000000  0.0000000  0.0000000 )
                  (  0.0000000  0.0000000  1.0000000 )


     point group C_4v (4mm) 
     there are  5 classes
     the character table:

       E     2C4   C2    2s_v  2s_d 
A_1    1.00  1.00  1.00  1.00  1.00
A_2    1.00  1.00  1.00 -1.00 -1.00
B_1    1.00 -1.00  1.00  1.00 -1.00
B_2    1.00 -1.00  1.00 -1.00  1.00
E      2.00  0.00 -2.00  0.00  0.00

     the symmetry operations in each class and the name of the first element:

     E        1
          identity                                               
     2C4      3    4
           90 deg rotation - cart. axis [0,0,-1]                 
     C2       2
          180 deg rotation - cart. axis [0,0,1]                  
     2s_v     5    6
          inv. 180 deg rotation - cart. axis [0,1,0]             
     2s_d     7    8
          inv. 180 deg rotation - cart. axis [1,1,0]             

   Cartesian axes

     site n.     atom                  positions (alat units)
         1           Au  tau(   1) = (   0.0000000   0.0000000   0.0000000  )
         2           Au  tau(   2) = (   0.0000000   0.2499999   0.2499999  )
         3           Au  tau(   3) = (   0.2499999   0.0000000   0.2499999  )
         4           Au  tau(   4) = (   0.2499999   0.2499999   0.0000000  )
         5           Au  tau(   5) = (   0.0000000   0.4999998   0.0000000  )
         6           Au  tau(   6) = (   0.0000000   0.7499996   0.2499999  )
         7           Au  tau(   7) = (   0.2499999   0.4999998   0.2499999  )
         8           Au  tau(   8) = (   0.2499999   0.7499996   0.0000000  )
         9           Au  tau(   9) = (   0.4999998   0.0000000   0.0000000  )
        10           Au  tau(  10) = (   0.4999998   0.2499999   0.2499999  )
        11           Au  tau(  11) = (   0.7499996   0.0000000   0.2499999  )
        12           Au  tau(  12) = (   0.7499996   0.2499999   0.0000000  )
        13           Au  tau(  13) = (   0.4999998   0.4999998   0.0000000  )
        14           Au  tau(  14) = (   0.4999998   0.7499996   0.2499999  )
        15           Au  tau(  15) = (   0.7499996   0.4999998   0.2499999  )
        16           Au  tau(  16) = (   0.7499996   0.7499996   0.0000000  )

   Crystallographic axes

     site n.     atom                  positions (cryst. coord.)
         1           Au  tau(   1) = (  0.0000000  0.0000000  0.0000000  )
         2           Au  tau(   2) = (  0.0000000  0.2499999  0.1471739  )
         3           Au  tau(   3) = (  0.2499999  0.0000000  0.1471739  )
         4           Au  tau(   4) = (  0.2499999  0.2499999  0.0000000  )
         5           Au  tau(   5) = (  0.0000000  0.4999998  0.0000000  )
         6           Au  tau(   6) = (  0.0000000  0.7499996  0.1471739  )
         7           Au  tau(   7) = (  0.2499999  0.4999998  0.1471739  )
         8           Au  tau(   8) = (  0.2499999  0.7499996  0.0000000  )
         9           Au  tau(   9) = (  0.4999998  0.0000000  0.0000000  )
        10           Au  tau(  10) = (  0.4999998  0.2499999  0.1471739  )
        11           Au  tau(  11) = (  0.7499996  0.0000000  0.1471739  )
        12           Au  tau(  12) = (  0.7499996  0.2499999  0.0000000  )
        13           Au  tau(  13) = (  0.4999998  0.4999998  0.0000000  )
        14           Au  tau(  14) = (  0.4999998  0.7499996  0.1471739  )
        15           Au  tau(  15) = (  0.7499996  0.4999998  0.1471739  )
        16           Au  tau(  16) = (  0.7499996  0.7499996  0.0000000  )

     number of k points=    10  Gaussian smearing, width (Ry)=  0.0030
                       cart. coord. in units 2pi/alat
        k(    1) = (   0.0000000   0.0000000   0.0000000), wk =   0.0408163
        k(    2) = (   0.0000000   0.1428571   0.0000000), wk =   0.1632653
        k(    3) = (   0.0000000   0.2857143   0.0000000), wk =   0.1632653
        k(    4) = (   0.0000000   0.4285714   0.0000000), wk =   0.1632653
        k(    5) = (   0.1428571   0.1428571   0.0000000), wk =   0.1632653
        k(    6) = (   0.1428571   0.2857143   0.0000000), wk =   0.3265306
        k(    7) = (   0.1428571   0.4285714   0.0000000), wk =   0.3265306
        k(    8) = (   0.2857143   0.2857143   0.0000000), wk =   0.1632653
        k(    9) = (   0.2857143   0.4285714   0.0000000), wk =   0.3265306
        k(   10) = (   0.4285714   0.4285714   0.0000000), wk =   0.1632653

                       cryst. coord.
        k(    1) = (   0.0000000   0.0000000   0.0000000), wk =   0.0408163
        k(    2) = (   0.0000000   0.1428571   0.0000000), wk =   0.1632653
        k(    3) = (   0.0000000   0.2857143   0.0000000), wk =   0.1632653
        k(    4) = (   0.0000000   0.4285714   0.0000000), wk =   0.1632653
        k(    5) = (   0.1428571   0.1428571   0.0000000), wk =   0.1632653
        k(    6) = (   0.1428571   0.2857143   0.0000000), wk =   0.3265306
        k(    7) = (   0.1428571   0.4285714   0.0000000), wk =   0.3265306
        k(    8) = (   0.2857143   0.2857143   0.0000000), wk =   0.1632653
        k(    9) = (   0.2857143   0.4285714   0.0000000), wk =   0.3265306
        k(   10) = (   0.4285714   0.4285714   0.0000000), wk =   0.1632653

     Dense  grid:   583927 G-vectors     FFT dimensions: (  90,  90, 150)

     Smooth grid:   147845 G-vectors     FFT dimensions: (  60,  60,  96)

     Dynamical RAM for                 wfc:       0.93 MB

     Dynamical RAM for     wfc (w. buffer):      10.27 MB

     Dynamical RAM for           str. fact:       0.28 MB

     Dynamical RAM for           local pot:       0.00 MB

     Dynamical RAM for          nlocal pot:       3.52 MB

     Dynamical RAM for                qrad:       2.60 MB

     Dynamical RAM for          rho,v,vnew:       1.76 MB

     Dynamical RAM for               rhoin:       0.59 MB

     Dynamical RAM for            rho*nmix:       4.46 MB

     Dynamical RAM for           G-vectors:       1.08 MB

     Dynamical RAM for          h,s,v(r/c):       0.08 MB

     Dynamical RAM for          <psi|beta>:       0.65 MB

     Dynamical RAM for                 psi:       1.87 MB

     Dynamical RAM for                hpsi:       1.87 MB

     Dynamical RAM for                spsi:       1.87 MB

     Dynamical RAM for      wfcinit/wfcrot:       3.01 MB

     Dynamical RAM for           addusdens:     102.48 MB

     Dynamical RAM for          addusforce:     111.09 MB

     Dynamical RAM for         addusstress:     105.54 MB

     Estimated static dynamical RAM per process >      26.65 MB

     Estimated max dynamical RAM per process >     137.74 MB

     Estimated total dynamical RAM >       4.30 GB

     Check: negative core charge=   -0.000004

     Initial potential from superposition of free atoms

     starting charge  175.99804, renormalised to  176.00000

     negative rho (up, down):  2.645E-05 0.000E+00
     Starting wfcs are  144 randomized atomic wfcs

     total cpu time spent up to now is        2.2 secs

     Self-consistent Calculation

     iteration #  1     ecut=    30.00 Ry     beta= 0.30
     Davidson diagonalization with overlap
     ethr =  1.00E-02,  avg # of iterations =  2.2

     Threshold (ethr) on eigenvalues was too large:
     Diagonalizing with lowered threshold

     Davidson diagonalization with overlap
     ethr =  3.97E-04,  avg # of iterations =  2.4

     negative rho (up, down):  1.583E-05 0.000E+00

     total cpu time spent up to now is        7.8 secs

     total energy              =   -1839.11534802 Ry
     estimated scf accuracy    <       0.80352292 Ry

     iteration #  2     ecut=    30.00 Ry     beta= 0.30
     Davidson diagonalization with overlap
     ethr =  4.57E-04,  avg # of iterations =  2.0

     negative rho (up, down):  2.843E-05 0.000E+00

     total cpu time spent up to now is       10.7 secs

     total energy              =   -1839.17544390 Ry
     estimated scf accuracy    <       0.08614805 Ry

     iteration #  3     ecut=    30.00 Ry     beta= 0.30
     Davidson diagonalization with overlap
     ethr =  4.89E-05,  avg # of iterations =  3.3

     negative rho (up, down):  4.030E-05 0.000E+00

     total cpu time spent up to now is       14.5 secs

     total energy              =   -1839.19856538 Ry
     estimated scf accuracy    <       0.00856612 Ry

     iteration #  4     ecut=    30.00 Ry     beta= 0.30
     Davidson diagonalization with overlap
     ethr =  4.87E-06,  avg # of iterations =  8.6

     negative rho (up, down):  5.809E-05 0.000E+00

     total cpu time spent up to now is       18.7 secs

     total energy              =   -1839.19894793 Ry
     estimated scf accuracy    <       0.00318041 Ry

     iteration #  5     ecut=    30.00 Ry     beta= 0.30
     Davidson diagonalization with overlap
     ethr =  1.81E-06,  avg # of iterations =  2.0

     negative rho (up, down):  6.334E-05 0.000E+00

     total cpu time spent up to now is       21.6 secs

     total energy              =   -1839.19909399 Ry
     estimated scf accuracy    <       0.00024811 Ry

     iteration #  6     ecut=    30.00 Ry     beta= 0.30
     Davidson diagonalization with overlap
     ethr =  1.41E-07,  avg # of iterations =  4.0

     negative rho (up, down):  6.605E-05 0.000E+00

     total cpu time spent up to now is       25.6 secs

     total energy              =   -1839.19917659 Ry
     estimated scf accuracy    <       0.00003879 Ry

     iteration #  7     ecut=    30.00 Ry     beta= 0.30
     Davidson diagonalization with overlap
     ethr =  2.20E-08,  avg # of iterations =  4.0

     negative rho (up, down):  6.856E-05 0.000E+00

     total cpu time spent up to now is       29.5 secs

     total energy              =   -1839.19918605 Ry
     estimated scf accuracy    <       0.00001606 Ry

     iteration #  8     ecut=    30.00 Ry     beta= 0.30
     Davidson diagonalization with overlap
     ethr =  9.13E-09,  avg # of iterations =  2.1

     negative rho (up, down):  7.074E-05 0.000E+00

     total cpu time spent up to now is       32.4 secs

     total energy              =   -1839.19918453 Ry
     estimated scf accuracy    <       0.00000550 Ry

     iteration #  9     ecut=    30.00 Ry     beta= 0.30
     Davidson diagonalization with overlap
     ethr =  3.12E-09,  avg # of iterations =  4.0

     negative rho (up, down):  7.196E-05 0.000E+00

     total cpu time spent up to now is       36.5 secs

     total energy              =   -1839.19918734 Ry
     estimated scf accuracy    <       0.00000157 Ry

     iteration # 10     ecut=    30.00 Ry     beta= 0.30
     Davidson diagonalization with overlap
     ethr =  8.92E-10,  avg # of iterations =  2.0

     negative rho (up, down):  7.284E-05 0.000E+00

     total cpu time spent up to now is       39.5 secs

     total energy              =   -1839.19918702 Ry
     estimated scf accuracy    <       0.00000181 Ry

     iteration # 11     ecut=    30.00 Ry     beta= 0.30
     Davidson diagonalization with overlap
     ethr =  8.92E-10,  avg # of iterations =  1.0

     negative rho (up, down):  7.500E-05 0.000E+00

     total cpu time spent up to now is       42.3 secs

     End of self-consistent calculation

          k = 0.0000 0.0000 0.0000 ( 18535 PWs)   bands (ev):

    -6.7634  -5.0489  -4.8960  -4.8960  -4.8960  -4.8960  -4.8145  -4.8145
    -4.8144  -4.8144  -4.8023  -4.6587  -4.6587  -4.3394  -4.3394  -3.9667
    -3.9667  -3.9667  -3.9667  -3.8625  -3.7904  -3.7904  -3.7904  -3.7904
    -3.4696  -3.4696  -3.4696  -3.4696  -3.3311  -3.3311  -3.3311  -3.3311
    -2.9283  -2.9283  -2.9282  -2.9282  -2.9099  -2.9099  -2.9099  -2.9099
    -2.8352  -2.8352  -2.8352  -2.8352  -2.7718  -2.7718  -2.7718  -2.7718
    -2.7075  -2.7075  -2.5040  -2.2804  -2.2804  -2.2804  -2.2804  -2.1150
    -2.1150  -2.1150  -2.1150  -2.0447  -2.0447  -2.0319  -2.0318  -2.0318
    -2.0318  -1.7659  -1.6557  -1.6557  -1.4854  -1.4854  -1.4854  -1.4854
    -1.4825  -1.4825  -1.4825  -1.4825  -1.4741  -1.4741  -1.4741  -1.4741
    -1.3224  -1.3224  -1.2454  -1.2205  -0.6832  -0.6832   0.9114   0.9115
     0.9115   0.9115   1.0684   1.0684   1.0684   1.0684   2.1941   3.3392
     3.3392   3.3392   3.3393   4.0173   4.0173   5.1967   5.4598   5.4598
     5.4600   5.4600

     occupation numbers 
     1.0000   1.0000   1.0000   1.0000   1.0000   1.0000   1.0000   1.0000
     1.0000   1.0000   1.0000   1.0000   1.0000   1.0000   1.0000   1.0000
     1.0000   1.0000   1.0000   1.0000   1.0000   1.0000   1.0000   1.0000
     1.0000   1.0000   1.0000   1.0000   1.0000   1.0000   1.0000   1.0000
     1.0000   1.0000   1.0000   1.0000   1.0000   1.0000   1.0000   1.0000
     1.0000   1.0000   1.0000   1.0000   1.0000   1.0000   1.0000   1.0000
     1.0000   1.0000   1.0000   1.0000   1.0000   1.0000   1.0000   1.0000
     1.0000   1.0000   1.0000   1.0000   1.0000   1.0000   1.0000   1.0000
     1.0000   1.0000   1.0000   1.0000   1.0000   1.0000   1.0000   1.0000
     1.0000   1.0000   1.0000   1.0000   1.0000   1.0000   1.0000   1.0000
     1.0000   1.0000   1.0000   1.0000   1.0000   1.0000   0.0000   0.0000
     0.0000   0.0000   0.0000   0.0000   0.0000   0.0000   0.0000   0.0000
     0.0000   0.0000   0.0000   0.0000   0.0000   0.0000   0.0000   0.0000
     0.0000   0.0000

          k = 0.0000 0.1429 0.0000 ( 18455 PWs)   bands (ev):

    -6.7109  -5.1662  -5.0060  -4.9284  -4.9284  -4.8259  -4.8259  -4.8211
    -4.8210  -4.7765  -4.6371  -4.6282  -4.5837  -4.3271  -4.3255  -4.0561
    -4.0398  -4.0398  -3.9798  -3.8818  -3.8690  -3.8379  -3.7717  -3.7717
    -3.6018  -3.5288  -3.5288  -3.3925  -3.3925  -3.3208  -3.3208  -3.0469
    -3.0425  -3.0331  -3.0327  -2.9931  -2.9931  -2.8749  -2.8749  -2.8641
    -2.8641  -2.8259  -2.8258  -2.7811  -2.7811  -2.7379  -2.7247  -2.6811
    -2.6735  -2.5113  -2.5037  -2.4328  -2.1929  -2.1929  -2.1505  -2.0844
    -2.0844  -2.0699  -2.0643  -2.0643  -2.0457  -2.0454  -1.9966  -1.9816
    -1.9816  -1.8121  -1.6688  -1.6611  -1.5685  -1.5587  -1.5587  -1.5526
    -1.5526  -1.4799  -1.4643  -1.4580  -1.4580  -1.3860  -1.3860  -1.3575
    -1.3276  -1.2721  -1.2242  -1.1531  -0.7931  -0.7355   0.2294   0.2295
     0.5354   1.1061   1.1062   1.6794   1.7036   1.7036   2.2980   2.7100
     2.7100   3.3380   4.0464   4.0464   4.1711   4.7707   5.2446   5.4889
     5.4891   5.5173

     occupation numbers 
     1.0000   1.0000   1.0000   1.0000   1.0000   1.0000   1.0000   1.0000
     1.0000   1.0000   1.0000   1.0000   1.0000   1.0000   1.0000   1.0000
     1.0000   1.0000   1.0000   1.0000   1.0000   1.0000   1.0000   1.0000
     1.0000   1.0000   1.0000   1.0000   1.0000   1.0000   1.0000   1.0000
     1.0000   1.0000   1.0000   1.0000   1.0000   1.0000   1.0000   1.0000
     1.0000   1.0000   1.0000   1.0000   1.0000   1.0000   1.0000   1.0000
     1.0000   1.0000   1.0000   1.0000   1.0000   1.0000   1.0000   1.0000
     1.0000   1.0000   1.0000   1.0000   1.0000   1.0000   1.0000   1.0000
     1.0000   1.0000   1.0000   1.0000   1.0000   1.0000   1.0000   1.0000
     1.0000   1.0000   1.0000   1.0000   1.0000   1.0000   1.0000   1.0000
     1.0000   1.0000   1.0000   1.0000   1.0000   1.0000   0.9676   0.9676
     0.0000   0.0000   0.0000   0.0000   0.0000   0.0000   0.0000   0.0000
     0.0000   0.0000   0.0000   0.0000   0.0000   0.0000   0.0000   0.0000
     0.0000   0.0000

          k = 0.0000 0.2857 0.0000 ( 18442 PWs)   bands (ev):

    -6.5555  -5.5739  -4.9284  -4.9284  -4.8795  -4.8410  -4.8410  -4.7163
    -4.7163  -4.7000  -4.5798  -4.5392  -4.4812  -4.2857  -4.2849  -4.2258
    -4.2050  -4.2050  -4.1278  -4.0513  -4.0341  -3.8473  -3.7646  -3.7278
    -3.7278  -3.5755  -3.5755  -3.2976  -3.2976  -3.2822  -3.2822  -3.2723
    -3.0468  -3.0353  -3.0352  -3.0131  -2.9567  -2.9567  -2.9501  -2.9501
    -2.9355  -2.9355  -2.8135  -2.7742  -2.7618  -2.5845  -2.5845  -2.5044
    -2.4801  -2.4755  -2.3147  -2.2883  -2.1369  -2.1134  -2.1134  -2.0827
    -2.0520  -2.0045  -2.0045  -1.9995  -1.9995  -1.9523  -1.9077  -1.9077
    -1.8626  -1.8283  -1.7153  -1.6782  -1.6574  -1.6574  -1.6295  -1.6295
    -1.5927  -1.4856  -1.4856  -1.4357  -1.4322  -1.4199  -1.3528  -1.3430
    -1.2627  -1.2627  -1.0833  -0.9646  -0.8797  -0.6820  -0.3357  -0.3357
     0.0691   1.2236   1.2236   2.1531   2.1532   2.2266   2.3772   2.5870
     2.6310   2.6311   4.1274   4.5927   4.7694   4.7695   4.8370   5.3883
     5.5574   5.5576

     occupation numbers 
     1.0000   1.0000   1.0000   1.0000   1.0000   1.0000   1.0000   1.0000
     1.0000   1.0000   1.0000   1.0000   1.0000   1.0000   1.0000   1.0000
     1.0000   1.0000   1.0000   1.0000   1.0000   1.0000   1.0000   1.0000
     1.0000   1.0000   1.0000   1.0000   1.0000   1.0000   1.0000   1.0000
     1.0000   1.0000   1.0000   1.0000   1.0000   1.0000   1.0000   1.0000
     1.0000   1.0000   1.0000   1.0000   1.0000   1.0000   1.0000   1.0000
     1.0000   1.0000   1.0000   1.0000   1.0000   1.0000   1.0000   1.0000
     1.0000   1.0000   1.0000   1.0000   1.0000   1.0000   1.0000   1.0000
     1.0000   1.0000   1.0000   1.0000   1.0000   1.0000   1.0000   1.0000
     1.0000   1.0000   1.0000   1.0000   1.0000   1.0000   1.0000   1.0000
     1.0000   1.0000   1.0000   1.0000   1.0000   1.0000   1.0000   1.0000
     1.0000   0.0000   0.0000   0.0000   0.0000   0.0000   0.0000   0.0000
     0.0000   0.0000   0.0000   0.0000   0.0000   0.0000   0.0000   0.0000
     0.0000   0.0000

          k = 0.0000 0.4286 0.0000 ( 18426 PWs)   bands (ev):

    -6.3035  -5.9680  -4.9055  -4.9055  -4.8720  -4.8720  -4.6775  -4.5761
    -4.5697  -4.5697  -4.5117  -4.4690  -4.4162  -4.4123  -4.3995  -4.3936
    -4.3936  -4.2233  -4.2207  -4.1999  -4.1390  -4.0523  -3.6729  -3.6729
    -3.6440  -3.6207  -3.6207  -3.4784  -3.2072  -3.2072  -3.1939  -3.1939
    -3.0726  -3.0725  -3.0531  -3.0531  -3.0477  -3.0477  -3.0177  -3.0177
    -2.9885  -2.9366  -2.9045  -2.8491  -2.5473  -2.5111  -2.4107  -2.3799
    -2.3799  -2.3367  -2.2291  -2.2149  -2.2149  -2.1708  -2.1432  -2.0757
    -1.9422  -1.9016  -1.8976  -1.8976  -1.8291  -1.8291  -1.8167  -1.8166
    -1.8069  -1.7784  -1.7784  -1.7647  -1.7102  -1.6708  -1.6708  -1.6467
    -1.5720  -1.5720  -1.5707  -1.5142  -1.4816  -1.4752  -1.3981  -1.3672
    -1.2797  -1.0795  -1.0762  -1.0762  -0.7746  -0.7746  -0.6857  -0.3379
     0.1345   1.1278   1.4315   1.4315   1.7418   1.7418   3.0141   3.1594
     3.5368   3.6236   3.6236   4.0014   4.7138   4.7139   5.2027   5.3522
     5.3523   5.5814

     occupation numbers 
     1.0000   1.0000   1.0000   1.0000   1.0000   1.0000   1.0000   1.0000
     1.0000   1.0000   1.0000   1.0000   1.0000   1.0000   1.0000   1.0000
     1.0000   1.0000   1.0000   1.0000   1.0000   1.0000   1.0000   1.0000
     1.0000   1.0000   1.0000   1.0000   1.0000   1.0000   1.0000   1.0000
     1.0000   1.0000   1.0000   1.0000   1.0000   1.0000   1.0000   1.0000
     1.0000   1.0000   1.0000   1.0000   1.0000   1.0000   1.0000   1.0000
     1.0000   1.0000   1.0000   1.0000   1.0000   1.0000   1.0000   1.0000
     1.0000   1.0000   1.0000   1.0000   1.0000   1.0000   1.0000   1.0000
     1.0000   1.0000   1.0000   1.0000   1.0000   1.0000   1.0000   1.0000
     1.0000   1.0000   1.0000   1.0000   1.0000   1.0000   1.0000   1.0000
     1.0000   1.0000   1.0000   1.0000   1.0000   1.0000   1.0000   1.0000
     1.0000   0.0000   0.0000   0.0000   0.0000   0.0000   0.0000   0.0000
     0.0000   0.0000   0.0000   0.0000   0.0000   0.0000   0.0000   0.0000
     0.0000   0.0000

          k = 0.1429 0.1429 0.0000 ( 18459 PWs)   bands (ev):

    -6.6597  -5.1631  -5.1631  -5.0162  -4.9733  -4.8111  -4.8111  -4.8045
    -4.7419  -4.6071  -4.6070  -4.5898  -4.5898  -4.3140  -4.3140  -4.1621
    -4.1621  -4.0301  -4.0301  -3.8432  -3.8432  -3.8181  -3.8181  -3.8131
    -3.5945  -3.5878  -3.5878  -3.4411  -3.4411  -3.3302  -3.0712  -3.0712
    -3.0306  -3.0306  -3.0028  -3.0028  -2.9842  -2.9842  -2.9772  -2.9772
    -2.8308  -2.8308  -2.8217  -2.8040  -2.7838  -2.7005  -2.6088  -2.6088
    -2.5183  -2.5182  -2.5038  -2.3886  -2.3886  -2.1971  -2.1050  -2.1050
    -2.0695  -2.0695  -2.0291  -1.9749  -1.9748  -1.9736  -1.9736  -1.9342
    -1.9342  -1.8485  -1.6786  -1.6786  -1.6239  -1.6239  -1.5730  -1.5669
    -1.5669  -1.5023  -1.5023  -1.4383  -1.4131  -1.4131  -1.3866  -1.2907
    -1.2905  -1.1303  -1.1303  -1.0973  -0.8423  -0.8423  -0.4532   0.5645
     0.5645   1.0357   1.0357   1.7285   1.7285   1.9982   2.3969   2.5344
     3.4640   3.4640   3.4677   3.4677   4.6242   4.8107   4.8107   5.2924
     5.6727   6.1163

     occupation numbers 
     1.0000   1.0000   1.0000   1.0000   1.0000   1.0000   1.0000   1.0000
     1.0000   1.0000   1.0000   1.0000   1.0000   1.0000   1.0000   1.0000
     1.0000   1.0000   1.0000   1.0000   1.0000   1.0000   1.0000   1.0000
     1.0000   1.0000   1.0000   1.0000   1.0000   1.0000   1.0000   1.0000
     1.0000   1.0000   1.0000   1.0000   1.0000   1.0000   1.0000   1.0000
     1.0000   1.0000   1.0000   1.0000   1.0000   1.0000   1.0000   1.0000
     1.0000   1.0000   1.0000   1.0000   1.0000   1.0000   1.0000   1.0000
     1.0000   1.0000   1.0000   1.0000   1.0000   1.0000   1.0000   1.0000
     1.0000   1.0000   1.0000   1.0000   1.0000   1.0000   1.0000   1.0000
     1.0000   1.0000   1.0000   1.0000   1.0000   1.0000   1.0000   1.0000
     1.0000   1.0000   1.0000   1.0000   1.0000   1.0000   1.0000   0.0000
     0.0000   0.0000   0.0000   0.0000   0.0000   0.0000   0.0000   0.0000
     0.0000   0.0000   0.0000   0.0000   0.0000   0.0000   0.0000   0.0000
     0.0000   0.0000

          k = 0.1429 0.2857 0.0000 ( 18459 PWs)   bands (ev):

    -6.5081  -5.5564  -5.1542  -5.0768  -4.8799  -4.7686  -4.7429  -4.6660
    -4.6370  -4.6117  -4.5518  -4.5196  -4.4793  -4.3557  -4.3349  -4.2753
    -4.2739  -4.1563  -4.0964  -3.9915  -3.9899  -3.8321  -3.7760  -3.7491
    -3.7389  -3.6404  -3.5404  -3.4926  -3.3417  -3.2532  -3.2514  -3.1141
    -3.0996  -3.0877  -3.0759  -3.0050  -2.9876  -2.9696  -2.9307  -2.9001
    -2.8331  -2.8255  -2.7929  -2.7858  -2.7588  -2.7162  -2.5662  -2.5058
    -2.4645  -2.3806  -2.3489  -2.3290  -2.3079  -2.2532  -2.1336  -2.0735
    -2.0338  -2.0017  -1.9879  -1.9694  -1.9328  -1.9100  -1.8646  -1.8642
    -1.8192  -1.8132  -1.7414  -1.7088  -1.7051  -1.6909  -1.6566  -1.6313
    -1.6048  -1.5466  -1.5414  -1.4326  -1.3854  -1.3829  -1.3621  -1.3410
    -1.2841  -1.1152  -0.9794  -0.9751  -0.9240  -0.8812  -0.5418   0.0939
     0.4441   0.6576   1.4980   1.8770   1.9502   2.3648   2.4348   2.6741
     2.9401   3.3777   3.7759   4.1775   4.3112   4.9223   5.0556   5.2775
     5.3755   5.4358

     occupation numbers 
     1.0000   1.0000   1.0000   1.0000   1.0000   1.0000   1.0000   1.0000
     1.0000   1.0000   1.0000   1.0000   1.0000   1.0000   1.0000   1.0000
     1.0000   1.0000   1.0000   1.0000   1.0000   1.0000   1.0000   1.0000
     1.0000   1.0000   1.0000   1.0000   1.0000   1.0000   1.0000   1.0000
     1.0000   1.0000   1.0000   1.0000   1.0000   1.0000   1.0000   1.0000
     1.0000   1.0000   1.0000   1.0000   1.0000   1.0000   1.0000   1.0000
     1.0000   1.0000   1.0000   1.0000   1.0000   1.0000   1.0000   1.0000
     1.0000   1.0000   1.0000   1.0000   1.0000   1.0000   1.0000   1.0000
     1.0000   1.0000   1.0000   1.0000   1.0000   1.0000   1.0000   1.0000
     1.0000   1.0000   1.0000   1.0000   1.0000   1.0000   1.0000   1.0000
     1.0000   1.0000   1.0000   1.0000   1.0000   1.0000   1.0000   1.0000
     0.0000   0.0000   0.0000   0.0000   0.0000   0.0000   0.0000   0.0000
     0.0000   0.0000   0.0000   0.0000   0.0000   0.0000   0.0000   0.0000
     0.0000   0.0000

          k = 0.1429 0.4286 0.0000 ( 18464 PWs)   bands (ev):

    -6.2628  -5.9373  -5.1394  -5.1156  -4.7373  -4.7109  -4.6538  -4.6407
    -4.5577  -4.5015  -4.4990  -4.4895  -4.4626  -4.4566  -4.3840  -4.3224
    -4.2333  -4.2229  -4.2130  -4.1878  -4.1258  -4.0381  -3.7052  -3.6792
    -3.6736  -3.6169  -3.5740  -3.4526  -3.4510  -3.3416  -3.1707  -3.1243
    -3.1212  -3.1011  -3.0752  -3.0740  -2.9980  -2.9767  -2.9555  -2.9469
    -2.8894  -2.8599  -2.8464  -2.7692  -2.6425  -2.5555  -2.5151  -2.4729
    -2.4008  -2.3477  -2.2248  -2.1964  -2.1740  -2.1735  -2.1017  -2.0962
    -2.0654  -2.0180  -2.0039  -1.8923  -1.8754  -1.8193  -1.8111  -1.7969
    -1.7789  -1.7577  -1.7565  -1.7471  -1.7429  -1.7195  -1.6530  -1.6400
    -1.6370  -1.6150  -1.6006  -1.5751  -1.4830  -1.4532  -1.3422  -1.3150
    -1.3056  -1.2798  -1.2155  -1.1505  -0.6553  -0.5192  -0.3127  -0.0736
     0.2893   0.8304   1.1045   1.2779   2.1266   2.4675   2.9961   3.0877
     3.2003   3.5979   3.8407   4.0950   4.3393   4.9349   5.0729   5.1766
     5.1857   5.3809

     occupation numbers 
     1.0000   1.0000   1.0000   1.0000   1.0000   1.0000   1.0000   1.0000
     1.0000   1.0000   1.0000   1.0000   1.0000   1.0000   1.0000   1.0000
     1.0000   1.0000   1.0000   1.0000   1.0000   1.0000   1.0000   1.0000
     1.0000   1.0000   1.0000   1.0000   1.0000   1.0000   1.0000   1.0000
     1.0000   1.0000   1.0000   1.0000   1.0000   1.0000   1.0000   1.0000
     1.0000   1.0000   1.0000   1.0000   1.0000   1.0000   1.0000   1.0000
     1.0000   1.0000   1.0000   1.0000   1.0000   1.0000   1.0000   1.0000
     1.0000   1.0000   1.0000   1.0000   1.0000   1.0000   1.0000   1.0000
     1.0000   1.0000   1.0000   1.0000   1.0000   1.0000   1.0000   1.0000
     1.0000   1.0000   1.0000   1.0000   1.0000   1.0000   1.0000   1.0000
     1.0000   1.0000   1.0000   1.0000   1.0000   1.0000   1.0000   1.0000
     0.4102   0.0000   0.0000   0.0000   0.0000   0.0000   0.0000   0.0000
     0.0000   0.0000   0.0000   0.0000   0.0000   0.0000   0.0000   0.0000
     0.0000   0.0000

          k = 0.2857 0.2857 0.0000 ( 18452 PWs)   bands (ev):

    -6.3683  -5.5061  -5.5061  -5.2106  -4.8526  -4.7377  -4.6036  -4.6036
    -4.5012  -4.5012  -4.4810  -4.4809  -4.4809  -4.4720  -4.4720  -4.2378
    -4.2378  -4.1800  -4.1800  -3.9063  -3.9063  -3.8418  -3.8418  -3.7814
    -3.7814  -3.6817  -3.6621  -3.4581  -3.4581  -3.1978  -3.1974  -3.1974
    -3.1549  -3.1549  -3.0996  -3.0996  -3.0099  -2.8327  -2.8327  -2.7660
    -2.7537  -2.7537  -2.7503  -2.7503  -2.6857  -2.6627  -2.5928  -2.5928
    -2.5576  -2.5122  -2.4117  -2.4117  -2.2293  -2.2293  -2.1664  -2.1356
    -2.1356  -2.0374  -1.8615  -1.8615  -1.8496  -1.8496  -1.8291  -1.8291
    -1.8136  -1.8136  -1.7715  -1.7715  -1.7597  -1.7597  -1.6871  -1.6841
    -1.6841  -1.6307  -1.4731  -1.4665  -1.4665  -1.4056  -1.3168  -1.3168
    -1.3044  -1.2446  -1.1951  -1.1951  -0.7892  -0.1970  -0.1970   0.1750
     0.1750   0.9758   1.3355   1.3356   2.5985   2.5985   2.7170   2.7170
     2.9221   3.8309   3.8309   4.2083   4.3224   4.3224   4.7214   4.7215
     5.0334   5.8275

     occupation numbers 
     1.0000   1.0000   1.0000   1.0000   1.0000   1.0000   1.0000   1.0000
     1.0000   1.0000   1.0000   1.0000   1.0000   1.0000   1.0000   1.0000
     1.0000   1.0000   1.0000   1.0000   1.0000   1.0000   1.0000   1.0000
     1.0000   1.0000   1.0000   1.0000   1.0000   1.0000   1.0000   1.0000
     1.0000   1.0000   1.0000   1.0000   1.0000   1.0000   1.0000   1.0000
     1.0000   1.0000   1.0000   1.0000   1.0000   1.0000   1.0000   1.0000
     1.0000   1.0000   1.0000   1.0000   1.0000   1.0000   1.0000   1.0000
     1.0000   1.0000   1.0000   1.0000   1.0000   1.0000   1.0000   1.0000
     1.0000   1.0000   1.0000   1.0000   1.0000   1.0000   1.0000   1.0000
     1.0000   1.0000   1.0000   1.0000   1.0000   1.0000   1.0000   1.0000
     1.0000   1.0000   1.0000   1.0000   1.0000   1.0000   1.0000   0.9999
     0.9999   0.0000   0.0000   0.0000   0.0000   0.0000   0.0000   0.0000
     0.0000   0.0000   0.0000   0.0000   0.0000   0.0000   0.0000   0.0000
     0.0000   0.0000

          k = 0.2857 0.4286 0.0000 ( 18474 PWs)   bands (ev):

    -6.1435  -5.8481  -5.4281  -5.3283  -4.7780  -4.6960  -4.6572  -4.6167
    -4.5438  -4.5004  -4.4432  -4.4313  -4.4289  -4.3582  -4.2984  -4.2677
    -4.2501  -4.1718  -4.1470  -4.0588  -4.0332  -3.9897  -3.7823  -3.7503
    -3.7097  -3.6876  -3.6257  -3.5600  -3.5368  -3.3723  -3.1509  -3.1488
    -3.1476  -3.1031  -3.0791  -3.0386  -2.9998  -2.9372  -2.8307  -2.8251
    -2.7566  -2.7563  -2.7167  -2.7091  -2.7017  -2.6518  -2.5728  -2.5280
    -2.4720  -2.3806  -2.3702  -2.3289  -2.2563  -2.2494  -2.1968  -2.1915
    -2.1428  -2.1038  -1.9931  -1.9583  -1.8883  -1.8842  -1.8493  -1.8297
    -1.8265  -1.7871  -1.7723  -1.7562  -1.7495  -1.7145  -1.7006  -1.6612
    -1.6405  -1.6244  -1.6017  -1.5222  -1.4959  -1.4278  -1.3822  -1.2908
    -1.2776  -1.2758  -1.2741  -1.2461  -0.5537  -0.2291   0.2554   0.3317
     0.5907   0.6692   0.7709   1.6568   2.2904   2.7936   3.1361   3.2149
     3.3001   3.4301   3.6438   3.7755   4.3844   4.5449   4.8087   4.8093
     4.8666   5.1181

     occupation numbers 
     1.0000   1.0000   1.0000   1.0000   1.0000   1.0000   1.0000   1.0000
     1.0000   1.0000   1.0000   1.0000   1.0000   1.0000   1.0000   1.0000
     1.0000   1.0000   1.0000   1.0000   1.0000   1.0000   1.0000   1.0000
     1.0000   1.0000   1.0000   1.0000   1.0000   1.0000   1.0000   1.0000
     1.0000   1.0000   1.0000   1.0000   1.0000   1.0000   1.0000   1.0000
     1.0000   1.0000   1.0000   1.0000   1.0000   1.0000   1.0000   1.0000
     1.0000   1.0000   1.0000   1.0000   1.0000   1.0000   1.0000   1.0000
     1.0000   1.0000   1.0000   1.0000   1.0000   1.0000   1.0000   1.0000
     1.0000   1.0000   1.0000   1.0000   1.0000   1.0000   1.0000   1.0000
     1.0000   1.0000   1.0000   1.0000   1.0000   1.0000   1.0000   1.0000
     1.0000   1.0000   1.0000   1.0000   1.0000   1.0000   0.8286   0.0449
     0.0000   0.0000   0.0000   0.0000   0.0000   0.0000   0.0000   0.0000
     0.0000   0.0000   0.0000   0.0000   0.0000   0.0000   0.0000   0.0000
     0.0000   0.0000

          k = 0.4286 0.4286 0.0000 ( 18476 PWs)   bands (ev):

    -5.9539  -5.7085  -5.7085  -5.5306  -4.7683  -4.7226  -4.7114  -4.7114
    -4.4115  -4.4115  -4.4081  -4.4081  -4.3629  -4.3629  -4.3143  -4.3143
    -4.0643  -4.0643  -4.0475  -3.9330  -3.9330  -3.8965  -3.8965  -3.8560
    -3.8560  -3.7626  -3.7625  -3.7532  -3.4099  -3.2610  -3.2610  -3.1711
    -3.1674  -3.1422  -3.1422  -3.0093  -2.8860  -2.8860  -2.7079  -2.7075
    -2.7075  -2.6847  -2.6847  -2.6810  -2.6271  -2.6271  -2.5691  -2.5691
    -2.5464  -2.4819  -2.4769  -2.4054  -2.4054  -2.3884  -2.3884  -2.2629
    -2.0672  -2.0672  -2.0022  -2.0022  -1.9532  -1.9532  -1.9348  -1.9348
    -1.8845  -1.8845  -1.8796  -1.8769  -1.6232  -1.6134  -1.6133  -1.5790
    -1.5790  -1.5691  -1.5691  -1.5372  -1.4632  -1.4632  -1.4303  -1.4303
    -1.2487  -1.2441  -1.2441  -1.2277  -0.3606  -0.0655  -0.0655   0.2025
     1.1621   1.1621   1.7120   1.7120   2.1508   2.1508   2.6641   2.6641
     3.6309   4.0543   4.0543   4.1228   4.1228   4.4068   4.4068   4.4108
     5.1197   5.1197

     occupation numbers 
     1.0000   1.0000   1.0000   1.0000   1.0000   1.0000   1.0000   1.0000
     1.0000   1.0000   1.0000   1.0000   1.0000   1.0000   1.0000   1.0000
     1.0000   1.0000   1.0000   1.0000   1.0000   1.0000   1.0000   1.0000
     1.0000   1.0000   1.0000   1.0000   1.0000   1.0000   1.0000   1.0000
     1.0000   1.0000   1.0000   1.0000   1.0000   1.0000   1.0000   1.0000
     1.0000   1.0000   1.0000   1.0000   1.0000   1.0000   1.0000   1.0000
     1.0000   1.0000   1.0000   1.0000   1.0000   1.0000   1.0000   1.0000
     1.0000   1.0000   1.0000   1.0000   1.0000   1.0000   1.0000   1.0000
     1.0000   1.0000   1.0000   1.0000   1.0000   1.0000   1.0000   1.0000
     1.0000   1.0000   1.0000   1.0000   1.0000   1.0000   1.0000   1.0000
     1.0000   1.0000   1.0000   1.0000   1.0000   1.0000   1.0000   0.9973
     0.0000   0.0000   0.0000   0.0000   0.0000   0.0000   0.0000   0.0000
     0.0000   0.0000   0.0000   0.0000   0.0000   0.0000   0.0000   0.0000
     0.0000   0.0000

     the Fermi energy is     0.2828 ev

!    total energy              =   -1839.19918655 Ry
     estimated scf accuracy    <       0.00000069 Ry
     smearing contrib. (-TS)   =      -0.00056442 Ry
     internal energy E=F+TS    =   -1839.19862213 Ry

     The total energy is F=E-TS. E is the sum of the following terms:
     one-electron contribution =   -3564.61820531 Ry
     hartree contribution      =    1909.90176357 Ry
     xc contribution           =    -994.37760492 Ry
     ewald contribution        =     809.89542452 Ry

     convergence has been achieved in  11 iterations

     negative rho (up, down):  7.500E-05 0.000E+00

     Forces acting on atoms (cartesian axes, Ry/au):

     atom    1 type  1   force =     0.00000000    0.00000000    0.00958374
     atom    2 type  1   force =     0.00000000    0.00000201   -0.00954785
     atom    3 type  1   force =     0.00000201    0.00000000   -0.00954785
     atom    4 type  1   force =    -0.00000004   -0.00000004    0.00951393
     atom    5 type  1   force =     0.00000000    0.00000000    0.00958440
     atom    6 type  1   force =     0.00000000   -0.00000201   -0.00954785
     atom    7 type  1   force =    -0.00000184    0.00000000   -0.00955172
     atom    8 type  1   force =    -0.00000004    0.00000004    0.00951393
     atom    9 type  1   force =     0.00000000    0.00000000    0.00958440
     atom   10 type  1   force =     0.00000000   -0.00000184   -0.00955172
     atom   11 type  1   force =    -0.00000201    0.00000000   -0.00954785
     atom   12 type  1   force =     0.00000004   -0.00000004    0.00951393
     atom   13 type  1   force =     0.00000000    0.00000000    0.00959001
     atom   14 type  1   force =     0.00000000    0.00000184   -0.00955172
     atom   15 type  1   force =     0.00000184    0.00000000   -0.00955172
     atom   16 type  1   force =     0.00000004    0.00000004    0.00951393
     The non-local contrib.  to forces
     atom    1 type  1   force =     0.00000000    0.00000000    0.01847066
     atom    2 type  1   force =    -0.00000000   -0.00000568   -0.01846843
     atom    3 type  1   force =    -0.00000568    0.00000000   -0.01846843
     atom    4 type  1   force =    -0.00000767   -0.00000767    0.01847305
     atom    5 type  1   force =     0.00000000    0.00000000    0.01846427
     atom    6 type  1   force =     0.00000000    0.00000568   -0.01846843
     atom    7 type  1   force =    -0.00000739    0.00000000   -0.01846469
     atom    8 type  1   force =    -0.00000767    0.00000767    0.01847305
     atom    9 type  1   force =     0.00000000    0.00000000    0.01846427
     atom   10 type  1   force =     0.00000000   -0.00000739   -0.01846469
     atom   11 type  1   force =     0.00000568   -0.00000000   -0.01846843
     atom   12 type  1   force =     0.00000767   -0.00000767    0.01847305
     atom   13 type  1   force =     0.00000000    0.00000000    0.01846056
     atom   14 type  1   force =     0.00000000    0.00000739   -0.01846469
     atom   15 type  1   force =     0.00000739    0.00000000   -0.01846469
     atom   16 type  1   force =     0.00000767    0.00000767    0.01847305
     The ionic contribution  to forces
     atom    1 type  1   force =    -0.00003826   -0.00003826  -32.60809070
     atom    2 type  1   force =    -0.00003826   -0.00001489   32.60810726
     atom    3 type  1   force =    -0.00001489   -0.00003826   32.60810726
     atom    4 type  1   force =    -0.00001489   -0.00001489  -32.60812381
     atom    5 type  1   force =    -0.00003826    0.00001489  -32.60810726
     atom    6 type  1   force =    -0.00003826    0.00003826   32.60809070
     atom    7 type  1   force =    -0.00001489    0.00001489   32.60812381
     atom    8 type  1   force =    -0.00001489    0.00003826  -32.60810726
     atom    9 type  1   force =     0.00001489   -0.00003826  -32.60810726
     atom   10 type  1   force =     0.00001489   -0.00001489   32.60812381
     atom   11 type  1   force =     0.00003826   -0.00003826   32.60809070
     atom   12 type  1   force =     0.00003826   -0.00001489  -32.60810726
     atom   13 type  1   force =     0.00001489    0.00001489  -32.60812381
     atom   14 type  1   force =     0.00001489    0.00003826   32.60810726
     atom   15 type  1   force =     0.00003826    0.00001489   32.60810726
     atom   16 type  1   force =     0.00003826    0.00003826  -32.60809070
     The local contribution  to forces
     atom    1 type  1   force =    -0.00000000   -0.00000000   32.57338226
     atom    2 type  1   force =    -0.00000000    0.00006116  -32.57341423
     atom    3 type  1   force =     0.00006116   -0.00000000  -32.57341423
     atom    4 type  1   force =     0.00006858    0.00006858   32.57339100
     atom    5 type  1   force =    -0.00000000    0.00005005   32.57340401
     atom    6 type  1   force =    -0.00000000    0.00003894  -32.57341423
     atom    7 type  1   force =     0.00007604    0.00005005  -32.57343159
     atom    8 type  1   force =     0.00006858    0.00003152   32.57339100
     atom    9 type  1   force =     0.00005005   -0.00000000   32.57340401
     atom   10 type  1   force =     0.00005005    0.00007604  -32.57343159
     atom   11 type  1   force =     0.00003894   -0.00000000  -32.57341423
     atom   12 type  1   force =     0.00003152    0.00006858   32.57339100
     atom   13 type  1   force =     0.00005005    0.00005005   32.57341387
     atom   14 type  1   force =     0.00005005    0.00002406  -32.57343159
     atom   15 type  1   force =     0.00002406    0.00005005  -32.57343159
     atom   16 type  1   force =     0.00003152    0.00003152   32.57339100
     The core correction contribution to forces
     atom    1 type  1   force =     0.00000000    0.00000000    0.02661151
     atom    2 type  1   force =     0.00000000    0.00001591   -0.02656807
     atom    3 type  1   force =     0.00001591    0.00000000   -0.02656807
     atom    4 type  1   force =     0.00001619    0.00001619    0.02653390
     atom    5 type  1   force =     0.00000001    0.00001504    0.02661577
     atom    6 type  1   force =     0.00000000    0.00001419   -0.02656806
     atom    7 type  1   force =     0.00001621    0.00001504   -0.02657034
     atom    8 type  1   force =     0.00001619    0.00001391    0.02653390
     atom    9 type  1   force =     0.00001504    0.00000001    0.02661577
     atom   10 type  1   force =     0.00001504    0.00001621   -0.02657034
     atom   11 type  1   force =     0.00001419    0.00000000   -0.02656806
     atom   12 type  1   force =     0.00001391    0.00001619    0.02653390
     atom   13 type  1   force =     0.00001504    0.00001504    0.02661697
     atom   14 type  1   force =     0.00001504    0.00001389   -0.02657034
     atom   15 type  1   force =     0.00001389    0.00001504   -0.02657034
     atom   16 type  1   force =     0.00001391    0.00001391    0.02653389
     The Hubbard contrib.    to forces
     atom    1 type  1   force =     0.00000000    0.00000000    0.00000000
     atom    2 type  1   force =     0.00000000    0.00000000    0.00000000
     atom    3 type  1   force =     0.00000000    0.00000000    0.00000000
     atom    4 type  1   force =     0.00000000    0.00000000    0.00000000
     atom    5 type  1   force =     0.00000000    0.00000000    0.00000000
     atom    6 type  1   force =     0.00000000    0.00000000    0.00000000
     atom    7 type  1   force =     0.00000000    0.00000000    0.00000000
     atom    8 type  1   force =     0.00000000    0.00000000    0.00000000
     atom    9 type  1   force =     0.00000000    0.00000000    0.00000000
     atom   10 type  1   force =     0.00000000    0.00000000    0.00000000
     atom   11 type  1   force =     0.00000000    0.00000000    0.00000000
     atom   12 type  1   force =     0.00000000    0.00000000    0.00000000
     atom   13 type  1   force =     0.00000000    0.00000000    0.00000000
     atom   14 type  1   force =     0.00000000    0.00000000    0.00000000
     atom   15 type  1   force =     0.00000000    0.00000000    0.00000000
     atom   16 type  1   force =     0.00000000    0.00000000    0.00000000
     The SCF correction term to forces
     atom    1 type  1   force =    -0.00000001   -0.00000001   -0.00079200
     atom    2 type  1   force =    -0.00000001    0.00002231    0.00080190
     atom    3 type  1   force =     0.00002231   -0.00000001    0.00080190
     atom    4 type  1   force =     0.00001455    0.00001455   -0.00077877
     atom    5 type  1   force =    -0.00000001    0.00000001   -0.00079441
     atom    6 type  1   force =    -0.00000001   -0.00002229    0.00080190
     atom    7 type  1   force =     0.00000499    0.00000001    0.00079736
     atom    8 type  1   force =     0.00001455   -0.00001453   -0.00077877
     atom    9 type  1   force =     0.00000001   -0.00000001   -0.00079441
     atom   10 type  1   force =     0.00000001    0.00000499    0.00079736
     atom   11 type  1   force =    -0.00002229   -0.00000001    0.00080190
     atom   12 type  1   force =    -0.00001453    0.00001455   -0.00077877
     atom   13 type  1   force =     0.00000001    0.00000001   -0.00077958
     atom   14 type  1   force =     0.00000001   -0.00000497    0.00079735
     atom   15 type  1   force =    -0.00000497    0.00000001    0.00079735
     atom   16 type  1   force =    -0.00001453   -0.00001453   -0.00077877

     Total force =     0.038199     Total SCF correction =     0.003169


     Computing stress (Cartesian axis) and pressure


     negative rho (up, down):  7.500E-05 0.000E+00
          total   stress  (Ry/bohr**3)                   (kbar)     P=      -29.05
  -0.00026995   0.00000000   0.00000000          -39.71        0.00        0.00
   0.00000000  -0.00026995   0.00000000            0.00      -39.71        0.00
   0.00000000   0.00000000  -0.00005248            0.00        0.00       -7.72

     kinetic stress (kbar)   5913.59      0.00      0.00
                                0.00   5913.59      0.00
                                0.00      0.00   6000.14

     local   stress (kbar) -73182.68     -0.00     -0.00
                               -0.00 -73182.68     -0.00
                               -0.00     -0.00  86804.09

     nonloc. stress (kbar)  -3792.65      0.00      0.00
                                0.00  -3792.65      0.00
                                0.00      0.00  -3796.82

     hartree stress (kbar)  39675.61      0.00      0.00
                                0.00  39675.61      0.00
                                0.00      0.00 -37139.60

     exc-cor stress (kbar)  15342.96      0.00     -0.00
                                0.00  15342.96     -0.00
                               -0.00     -0.00  15336.63

     corecor stress (kbar) -17698.69      0.00      0.00
                                0.00 -17698.69      0.00
                                0.00      0.00 -17707.73

     ewald   stress (kbar)  33702.15     -0.00     -0.00
                               -0.00  33702.15     -0.00
                               -0.00     -0.00 -49504.44

     hubbard stress (kbar)      0.00      0.00      0.00
                                0.00      0.00      0.00
                                0.00      0.00      0.00

     DFT-D   stress (kbar)      0.00      0.00      0.00
                                0.00      0.00      0.00
                                0.00      0.00      0.00

     XDM     stress (kbar)      0.00      0.00      0.00
                                0.00      0.00      0.00
                                0.00      0.00      0.00

     dft-nl  stress (kbar)      0.00      0.00      0.00
                                0.00      0.00      0.00
                                0.00      0.00      0.00

     TS-vdW  stress (kbar)      0.00      0.00      0.00
                                0.00      0.00      0.00
                                0.00      0.00      0.00



     BFGS Geometry Optimization
     Energy error            =      0.0E+00
     Gradient error          =      9.6E-03

     number of scf cycles    =   1
     number of bfgs steps    =   0

     energy   new            =   -1839.1991865546 Ry

     new trust radius        =       0.0095900059 bohr
     new conv_thr            =       0.0000010000 Ry


ATOMIC_POSITIONS (angstrom)
Au            0.0000000000        0.0000000000        0.0050714974
Au            0.0000000000        2.0856450622        2.0805914974
Au            2.0856450622        0.0000000000        2.0805914974
Au            2.0856439791        2.0856439791        0.0050345560
Au            0.0000000000        4.1712880000        0.0050718448
Au            0.0000000000        6.2569309378        2.0805914974
Au            2.0856430278        4.1712880000        2.0805894467
Au            2.0856439791        6.2569320209        0.0050345560
Au            4.1712880000        0.0000000000        0.0050718448
Au            4.1712880000        2.0856430278        2.0805894467
Au            6.2569309378        0.0000000000        2.0805914974
Au            6.2569320209        2.0856439791        0.0050345560
Au            4.1712880000        4.1712880000        0.0050748126
Au            4.1712880000        6.2569329722        2.0805894467
Au            6.2569329722        4.1712880000        2.0805894467
Au            6.2569320209        6.2569320209        0.0050345560



     Writing output data file ./surface.save/
     NEW-OLD atomic charge density approx. for the potential

     Check: negative core charge=   -0.000004

     negative rho (up, down):  7.522E-05 0.000E+00

     total cpu time spent up to now is       49.8 secs

     Self-consistent Calculation

     iteration #  1     ecut=    30.00 Ry     beta= 0.30
     Davidson diagonalization with overlap
     ethr =  1.00E-06,  avg # of iterations =  7.0

     Threshold (ethr) on eigenvalues was too large:
     Diagonalizing with lowered threshold

     Davidson diagonalization with overlap
     ethr =  1.25E-08,  avg # of iterations =  7.8

     negative rho (up, down):  7.530E-05 0.000E+00

     total cpu time spent up to now is       62.9 secs

     total energy              =   -1839.20059565 Ry
     estimated scf accuracy    <       0.00002982 Ry

     iteration #  2     ecut=    30.00 Ry     beta= 0.30
     Davidson diagonalization with overlap
     ethr =  1.69E-08,  avg # of iterations =  3.0

     negative rho (up, down):  7.544E-05 0.000E+00

     total cpu time spent up to now is       66.4 secs

     total energy              =   -1839.20060122 Ry
     estimated scf accuracy    <       0.00000320 Ry

     iteration #  3     ecut=    30.00 Ry     beta= 0.30
     Davidson diagonalization with overlap
     ethr =  1.82E-09,  avg # of iterations =  2.0

     negative rho (up, down):  7.552E-05 0.000E+00

     total cpu time spent up to now is       69.3 secs

     total energy              =   -1839.20060148 Ry
     estimated scf accuracy    <       0.00000139 Ry

     iteration #  4     ecut=    30.00 Ry     beta= 0.30
     Davidson diagonalization with overlap
     ethr =  7.87E-10,  avg # of iterations =  2.2

     negative rho (up, down):  7.583E-05 0.000E+00

     total cpu time spent up to now is       72.4 secs

     End of self-consistent calculation

          k = 0.0000 0.0000 0.0000 ( 18535 PWs)   bands (ev):

    -6.7846  -5.0608  -4.9167  -4.9167  -4.9166  -4.9166  -4.8356  -4.8356
    -4.8356  -4.8356  -4.8195  -4.6763  -4.6759  -4.3613  -4.3613  -3.9906
    -3.9906  -3.9906  -3.9906  -3.8593  -3.8065  -3.8065  -3.8065  -3.8065
    -3.4697  -3.4697  -3.4694  -3.4694  -3.3495  -3.3495  -3.3495  -3.3494
    -2.9372  -2.9372  -2.9372  -2.9372  -2.9257  -2.9257  -2.9257  -2.9257
    -2.8545  -2.8544  -2.8542  -2.8542  -2.7750  -2.7750  -2.7750  -2.7750
    -2.7255  -2.7255  -2.4944  -2.2794  -2.2794  -2.2794  -2.2794  -2.1115
    -2.1114  -2.1114  -2.1114  -2.0409  -2.0409  -2.0394  -2.0394  -2.0393
    -2.0393  -1.7804  -1.6538  -1.6533  -1.4785  -1.4785  -1.4783  -1.4782
    -1.4777  -1.4776  -1.4776  -1.4776  -1.4711  -1.4711  -1.4711  -1.4711
    -1.3206  -1.3206  -1.2451  -1.2159  -0.6896  -0.6890   0.9045   0.9046
     0.9046   0.9046   1.0857   1.0857   1.0857   1.0857   2.2055   3.3465
     3.3466   3.3469   3.3469   4.0072   4.0072   5.1971   5.4682   5.4682
     5.4685   5.4686

     occupation numbers 
     1.0000   1.0000   1.0000   1.0000   1.0000   1.0000   1.0000   1.0000
     1.0000   1.0000   1.0000   1.0000   1.0000   1.0000   1.0000   1.0000
     1.0000   1.0000   1.0000   1.0000   1.0000   1.0000   1.0000   1.0000
     1.0000   1.0000   1.0000   1.0000   1.0000   1.0000   1.0000   1.0000
     1.0000   1.0000   1.0000   1.0000   1.0000   1.0000   1.0000   1.0000
     1.0000   1.0000   1.0000   1.0000   1.0000   1.0000   1.0000   1.0000
     1.0000   1.0000   1.0000   1.0000   1.0000   1.0000   1.0000   1.0000
     1.0000   1.0000   1.0000   1.0000   1.0000   1.0000   1.0000   1.0000
     1.0000   1.0000   1.0000   1.0000   1.0000   1.0000   1.0000   1.0000
     1.0000   1.0000   1.0000   1.0000   1.0000   1.0000   1.0000   1.0000
     1.0000   1.0000   1.0000   1.0000   1.0000   1.0000   0.0000   0.0000
     0.0000   0.0000   0.0000   0.0000   0.0000   0.0000   0.0000   0.0000
     0.0000   0.0000   0.0000   0.0000   0.0000   0.0000   0.0000   0.0000
     0.0000   0.0000

          k = 0.0000 0.1429 0.0000 ( 18455 PWs)   bands (ev):

    -6.7322  -5.1880  -5.0179  -4.9490  -4.9489  -4.8467  -4.8466  -4.8422
    -4.8421  -4.7938  -4.6545  -4.6456  -4.6035  -4.3489  -4.3475  -4.0783
    -4.0631  -4.0631  -4.0039  -3.8969  -3.8860  -3.8349  -3.7875  -3.7875
    -3.6212  -3.5306  -3.5306  -3.3912  -3.3912  -3.3392  -3.3392  -3.0636
    -3.0594  -3.0444  -3.0343  -3.0056  -3.0055  -2.8939  -2.8939  -2.8827
    -2.8827  -2.8274  -2.8274  -2.7936  -2.7936  -2.7557  -2.7426  -2.6937
    -2.6817  -2.5160  -2.4942  -2.4301  -2.1933  -2.1933  -2.1476  -2.0811
    -2.0811  -2.0732  -2.0732  -2.0661  -2.0458  -2.0423  -1.9937  -1.9879
    -1.9879  -1.8266  -1.6674  -1.6590  -1.5661  -1.5546  -1.5546  -1.5487
    -1.5486  -1.4712  -1.4577  -1.4538  -1.4538  -1.3801  -1.3801  -1.3560
    -1.3257  -1.2716  -1.2222  -1.1485  -0.7994  -0.7408   0.2234   0.2234
     0.5499   1.1232   1.1232   1.6965   1.6965   1.6986   2.3094   2.7191
     2.7191   3.3300   4.0522   4.0522   4.1613   4.7799   5.2450   5.4971
     5.4974   5.5219

     occupation numbers 
     1.0000   1.0000   1.0000   1.0000   1.0000   1.0000   1.0000   1.0000
     1.0000   1.0000   1.0000   1.0000   1.0000   1.0000   1.0000   1.0000
     1.0000   1.0000   1.0000   1.0000   1.0000   1.0000   1.0000   1.0000
     1.0000   1.0000   1.0000   1.0000   1.0000   1.0000   1.0000   1.0000
     1.0000   1.0000   1.0000   1.0000   1.0000   1.0000   1.0000   1.0000
     1.0000   1.0000   1.0000   1.0000   1.0000   1.0000   1.0000   1.0000
     1.0000   1.0000   1.0000   1.0000   1.0000   1.0000   1.0000   1.0000
     1.0000   1.0000   1.0000   1.0000   1.0000   1.0000   1.0000   1.0000
     1.0000   1.0000   1.0000   1.0000   1.0000   1.0000   1.0000   1.0000
     1.0000   1.0000   1.0000   1.0000   1.0000   1.0000   1.0000   1.0000
     1.0000   1.0000   1.0000   1.0000   1.0000   1.0000   0.9750   0.9750
     0.0000   0.0000   0.0000   0.0000   0.0000   0.0000   0.0000   0.0000
     0.0000   0.0000   0.0000   0.0000   0.0000   0.0000   0.0000   0.0000
     0.0000   0.0000

          k = 0.0000 0.2857 0.0000 ( 18442 PWs)   bands (ev):

    -6.5769  -5.5958  -4.9490  -4.9490  -4.8918  -4.8620  -4.8620  -4.7373
    -4.7373  -4.7175  -4.5972  -4.5566  -4.4998  -4.3073  -4.3070  -4.2458
    -4.2273  -4.2273  -4.1420  -4.0748  -4.0514  -3.8673  -3.7620  -3.7422
    -3.7421  -3.5801  -3.5800  -3.3006  -3.3006  -3.2959  -3.2959  -3.2724
    -3.0636  -3.0483  -3.0483  -3.0271  -2.9745  -2.9745  -2.9682  -2.9681
    -2.9347  -2.9347  -2.8306  -2.7918  -2.7751  -2.5970  -2.5969  -2.4950
    -2.4819  -2.4776  -2.3227  -2.2933  -2.1334  -2.1238  -2.1238  -2.0831
    -2.0498  -2.0017  -2.0017  -2.0014  -2.0014  -1.9668  -1.9128  -1.9128
    -1.8622  -1.8263  -1.7156  -1.6762  -1.6536  -1.6536  -1.6271  -1.6271
    -1.5913  -1.4816  -1.4816  -1.4350  -1.4270  -1.4119  -1.3523  -1.3406
    -1.2575  -1.2575  -1.0901  -0.9595  -0.8828  -0.6831  -0.3401  -0.3401
     0.0806   1.2398   1.2398   2.1640   2.1640   2.2200   2.3970   2.5983
     2.6242   2.6242   4.1373   4.5836   4.7736   4.7736   4.8485   5.3888
     5.5648   5.5651

     occupation numbers 
     1.0000   1.0000   1.0000   1.0000   1.0000   1.0000   1.0000   1.0000
     1.0000   1.0000   1.0000   1.0000   1.0000   1.0000   1.0000   1.0000
     1.0000   1.0000   1.0000   1.0000   1.0000   1.0000   1.0000   1.0000
     1.0000   1.0000   1.0000   1.0000   1.0000   1.0000   1.0000   1.0000
     1.0000   1.0000   1.0000   1.0000   1.0000   1.0000   1.0000   1.0000
     1.0000   1.0000   1.0000   1.0000   1.0000   1.0000   1.0000   1.0000
     1.0000   1.0000   1.0000   1.0000   1.0000   1.0000   1.0000   1.0000
     1.0000   1.0000   1.0000   1.0000   1.0000   1.0000   1.0000   1.0000
     1.0000   1.0000   1.0000   1.0000   1.0000   1.0000   1.0000   1.0000
     1.0000   1.0000   1.0000   1.0000   1.0000   1.0000   1.0000   1.0000
     1.0000   1.0000   1.0000   1.0000   1.0000   1.0000   1.0000   1.0000
     1.0000   0.0000   0.0000   0.0000   0.0000   0.0000   0.0000   0.0000
     0.0000   0.0000   0.0000   0.0000   0.0000   0.0000   0.0000   0.0000
     0.0000   0.0000

          k = 0.0000 0.4286 0.0000 ( 18426 PWs)   bands (ev):

    -6.3250  -5.9897  -4.9262  -4.9261  -4.8929  -4.8928  -4.6904  -4.5940
    -4.5910  -4.5909  -4.5292  -4.4868  -4.4309  -4.4298  -4.4169  -4.4153
    -4.4153  -4.2431  -4.2408  -4.2211  -4.1619  -4.0729  -3.6845  -3.6845
    -3.6419  -3.6287  -3.6287  -3.4773  -3.2252  -3.2252  -3.1950  -3.1950
    -3.0871  -3.0871  -3.0620  -3.0619  -3.0513  -3.0513  -3.0340  -3.0339
    -3.0050  -2.9524  -2.9213  -2.8660  -2.5435  -2.5022  -2.4224  -2.3922
    -2.3922  -2.3371  -2.2267  -2.2266  -2.2265  -2.1858  -2.1461  -2.0757
    -1.9452  -1.9094  -1.8946  -1.8946  -1.8328  -1.8328  -1.8194  -1.8193
    -1.8092  -1.7750  -1.7749  -1.7634  -1.7084  -1.6691  -1.6691  -1.6455
    -1.5702  -1.5692  -1.5691  -1.5140  -1.4826  -1.4808  -1.3940  -1.3641
    -1.2749  -1.0790  -1.0738  -1.0737  -0.7761  -0.7761  -0.6791  -0.3292
     0.1308   1.1224   1.4464   1.4464   1.7550   1.7550   3.0251   3.1783
     3.5474   3.6167   3.6167   4.0176   4.7076   4.7076   5.1945   5.3558
     5.3559   5.5870

     occupation numbers 
     1.0000   1.0000   1.0000   1.0000   1.0000   1.0000   1.0000   1.0000
     1.0000   1.0000   1.0000   1.0000   1.0000   1.0000   1.0000   1.0000
     1.0000   1.0000   1.0000   1.0000   1.0000   1.0000   1.0000   1.0000
     1.0000   1.0000   1.0000   1.0000   1.0000   1.0000   1.0000   1.0000
     1.0000   1.0000   1.0000   1.0000   1.0000   1.0000   1.0000   1.0000
     1.0000   1.0000   1.0000   1.0000   1.0000   1.0000   1.0000   1.0000
     1.0000   1.0000   1.0000   1.0000   1.0000   1.0000   1.0000   1.0000
     1.0000   1.0000   1.0000   1.0000   1.0000   1.0000   1.0000   1.0000
     1.0000   1.0000   1.0000   1.0000   1.0000   1.0000   1.0000   1.0000
     1.0000   1.0000   1.0000   1.0000   1.0000   1.0000   1.0000   1.0000
     1.0000   1.0000   1.0000   1.0000   1.0000   1.0000   1.0000   1.0000
     1.0000   0.0000   0.0000   0.0000   0.0000   0.0000   0.0000   0.0000
     0.0000   0.0000   0.0000   0.0000   0.0000   0.0000   0.0000   0.0000
     0.0000   0.0000

          k = 0.1429 0.1429 0.0000 ( 18459 PWs)   bands (ev):

    -6.6810  -5.1848  -5.1848  -5.0366  -4.9855  -4.8320  -4.8319  -4.8252
    -4.7591  -4.6247  -4.6242  -4.6097  -4.6097  -4.3358  -4.3358  -4.1828
    -4.1828  -4.0536  -4.0536  -3.8602  -3.8602  -3.8341  -3.8341  -3.8102
    -3.6071  -3.6071  -3.5979  -3.4425  -3.4422  -3.3274  -3.0829  -3.0829
    -3.0413  -3.0413  -3.0083  -3.0083  -3.0021  -3.0018  -2.9949  -2.9949
    -2.8419  -2.8419  -2.8413  -2.8211  -2.8025  -2.7188  -2.6121  -2.6121
    -2.5263  -2.5263  -2.4943  -2.3872  -2.3872  -2.2074  -2.1035  -2.1035
    -2.0662  -2.0662  -2.0348  -1.9750  -1.9750  -1.9706  -1.9706  -1.9414
    -1.9413  -1.8631  -1.6775  -1.6770  -1.6215  -1.6215  -1.5692  -1.5631
    -1.5628  -1.4958  -1.4958  -1.4368  -1.4069  -1.4069  -1.3821  -1.2901
    -1.2887  -1.1281  -1.1281  -1.0925  -0.8481  -0.8474  -0.4582   0.5790
     0.5790   1.0290   1.0291   1.7472   1.7472   2.0073   2.4083   2.5283
     3.4603   3.4604   3.4720   3.4723   4.6279   4.8198   4.8198   5.2929
     5.6750   6.1204

     occupation numbers 
     1.0000   1.0000   1.0000   1.0000   1.0000   1.0000   1.0000   1.0000
     1.0000   1.0000   1.0000   1.0000   1.0000   1.0000   1.0000   1.0000
     1.0000   1.0000   1.0000   1.0000   1.0000   1.0000   1.0000   1.0000
     1.0000   1.0000   1.0000   1.0000   1.0000   1.0000   1.0000   1.0000
     1.0000   1.0000   1.0000   1.0000   1.0000   1.0000   1.0000   1.0000
     1.0000   1.0000   1.0000   1.0000   1.0000   1.0000   1.0000   1.0000
     1.0000   1.0000   1.0000   1.0000   1.0000   1.0000   1.0000   1.0000
     1.0000   1.0000   1.0000   1.0000   1.0000   1.0000   1.0000   1.0000
     1.0000   1.0000   1.0000   1.0000   1.0000   1.0000   1.0000   1.0000
     1.0000   1.0000   1.0000   1.0000   1.0000   1.0000   1.0000   1.0000
     1.0000   1.0000   1.0000   1.0000   1.0000   1.0000   1.0000   0.0000
     0.0000   0.0000   0.0000   0.0000   0.0000   0.0000   0.0000   0.0000
     0.0000   0.0000   0.0000   0.0000   0.0000   0.0000   0.0000   0.0000
     0.0000   0.0000

          k = 0.1429 0.2857 0.0000 ( 18459 PWs)   bands (ev):

    -6.5295  -5.5782  -5.1756  -5.0973  -4.8931  -4.7894  -4.7634  -4.6872
    -4.6538  -4.6319  -4.5691  -4.5370  -4.4981  -4.3737  -4.3551  -4.2973
    -4.2956  -4.1791  -4.1183  -4.0086  -4.0080  -3.8521  -3.7925  -3.7639
    -3.7364  -3.6461  -3.5596  -3.4983  -3.3457  -3.2516  -3.2496  -3.1282
    -3.1126  -3.1030  -3.0831  -3.0174  -2.9953  -2.9802  -2.9481  -2.9164
    -2.8524  -2.8423  -2.8040  -2.7943  -2.7710  -2.7345  -2.5763  -2.4966
    -2.4632  -2.3856  -2.3551  -2.3408  -2.3080  -2.2548  -2.1308  -2.0717
    -2.0392  -2.0022  -1.9919  -1.9842  -1.9407  -1.9068  -1.8635  -1.8621
    -1.8241  -1.8111  -1.7418  -1.7074  -1.7036  -1.6874  -1.6553  -1.6277
    -1.6010  -1.5431  -1.5405  -1.4262  -1.3814  -1.3778  -1.3614  -1.3351
    -1.2817  -1.1208  -0.9818  -0.9780  -0.9187  -0.8808  -0.5435   0.1055
     0.4385   0.6717   1.5096   1.8943   1.9434   2.3586   2.4538   2.6854
     2.9506   3.3704   3.7713   4.1873   4.3180   4.9307   5.0586   5.2721
     5.3848   5.4363

     occupation numbers 
     1.0000   1.0000   1.0000   1.0000   1.0000   1.0000   1.0000   1.0000
     1.0000   1.0000   1.0000   1.0000   1.0000   1.0000   1.0000   1.0000
     1.0000   1.0000   1.0000   1.0000   1.0000   1.0000   1.0000   1.0000
     1.0000   1.0000   1.0000   1.0000   1.0000   1.0000   1.0000   1.0000
     1.0000   1.0000   1.0000   1.0000   1.0000   1.0000   1.0000   1.0000
     1.0000   1.0000   1.0000   1.0000   1.0000   1.0000   1.0000   1.0000
     1.0000   1.0000   1.0000   1.0000   1.0000   1.0000   1.0000   1.0000
     1.0000   1.0000   1.0000   1.0000   1.0000   1.0000   1.0000   1.0000
     1.0000   1.0000   1.0000   1.0000   1.0000   1.0000   1.0000   1.0000
     1.0000   1.0000   1.0000   1.0000   1.0000   1.0000   1.0000   1.0000
     1.0000   1.0000   1.0000   1.0000   1.0000   1.0000   1.0000   1.0000
     0.0000   0.0000   0.0000   0.0000   0.0000   0.0000   0.0000   0.0000
     0.0000   0.0000   0.0000   0.0000   0.0000   0.0000   0.0000   0.0000
     0.0000   0.0000

          k = 0.1429 0.4286 0.0000 ( 18464 PWs)   bands (ev):

    -6.2843  -5.9590  -5.1604  -5.1363  -4.7519  -4.7316  -4.6743  -4.6610
    -4.5739  -4.5217  -4.5207  -4.5071  -4.4791  -4.4746  -4.4015  -4.3446
    -4.2496  -4.2413  -4.2352  -4.2089  -4.1475  -4.0586  -3.7171  -3.6940
    -3.6822  -3.6150  -3.5853  -3.4716  -3.4501  -3.3587  -3.1671  -3.1330
    -3.1253  -3.0997  -3.0896  -3.0843  -3.0134  -2.9768  -2.9707  -2.9620
    -2.9072  -2.8771  -2.8642  -2.7873  -2.6579  -2.5519  -2.5063  -2.4865
    -2.4125  -2.3518  -2.2237  -2.2007  -2.1890  -2.1791  -2.1028  -2.0968
    -2.0701  -2.0247  -2.0093  -1.8930  -1.8775  -1.8159  -1.8082  -1.7956
    -1.7770  -1.7624  -1.7558  -1.7482  -1.7416  -1.7160  -1.6527  -1.6385
    -1.6348  -1.6149  -1.5995  -1.5745  -1.4820  -1.4589  -1.3382  -1.3106
    -1.3024  -1.2744  -1.2119  -1.1497  -0.6486  -0.5212  -0.3039  -0.0777
     0.2853   0.8440   1.1174   1.2725   2.1418   2.4793   2.9906   3.0986
     3.2177   3.6083   3.8494   4.0891   4.3323   4.9356   5.0801   5.1815
     5.1910   5.3750

     occupation numbers 
     1.0000   1.0000   1.0000   1.0000   1.0000   1.0000   1.0000   1.0000
     1.0000   1.0000   1.0000   1.0000   1.0000   1.0000   1.0000   1.0000
     1.0000   1.0000   1.0000   1.0000   1.0000   1.0000   1.0000   1.0000
     1.0000   1.0000   1.0000   1.0000   1.0000   1.0000   1.0000   1.0000
     1.0000   1.0000   1.0000   1.0000   1.0000   1.0000   1.0000   1.0000
     1.0000   1.0000   1.0000   1.0000   1.0000   1.0000   1.0000   1.0000
     1.0000   1.0000   1.0000   1.0000   1.0000   1.0000   1.0000   1.0000
     1.0000   1.0000   1.0000   1.0000   1.0000   1.0000   1.0000   1.0000
     1.0000   1.0000   1.0000   1.0000   1.0000   1.0000   1.0000   1.0000
     1.0000   1.0000   1.0000   1.0000   1.0000   1.0000   1.0000   1.0000
     1.0000   1.0000   1.0000   1.0000   1.0000   1.0000   1.0000   1.0000
     0.4266   0.0000   0.0000   0.0000   0.0000   0.0000   0.0000   0.0000
     0.0000   0.0000   0.0000   0.0000   0.0000   0.0000   0.0000   0.0000
     0.0000   0.0000

          k = 0.2857 0.2857 0.0000 ( 18452 PWs)   bands (ev):

    -6.3897  -5.5275  -5.5275  -5.2311  -4.8670  -4.7575  -4.6247  -4.6247
    -4.5193  -4.5193  -4.5002  -4.5002  -4.4973  -4.4897  -4.4894  -4.2595
    -4.2594  -4.2018  -4.2018  -3.9246  -3.9246  -3.8581  -3.8581  -3.8011
    -3.8011  -3.6896  -3.6600  -3.4718  -3.4717  -3.1972  -3.1972  -3.1935
    -3.1618  -3.1617  -3.1107  -3.1106  -3.0250  -2.8521  -2.8521  -2.7862
    -2.7633  -2.7633  -2.7612  -2.7612  -2.7046  -2.6809  -2.5969  -2.5969
    -2.5699  -2.5032  -2.4132  -2.4132  -2.2271  -2.2271  -2.1717  -2.1355
    -2.1353  -2.0530  -1.8578  -1.8578  -1.8549  -1.8549  -1.8310  -1.8308
    -1.8134  -1.8129  -1.7689  -1.7689  -1.7591  -1.7591  -1.6864  -1.6839
    -1.6837  -1.6271  -1.4740  -1.4629  -1.4629  -1.4044  -1.3116  -1.3116
    -1.2996  -1.2416  -1.1979  -1.1974  -0.7832  -0.1999  -0.1999   0.1868
     0.1868   0.9878   1.3294   1.3295   2.6154   2.6154   2.7115   2.7117
     2.9332   3.8403   3.8406   4.2011   4.3318   4.3318   4.7166   4.7166
     5.0381   5.5788

     occupation numbers 
     1.0000   1.0000   1.0000   1.0000   1.0000   1.0000   1.0000   1.0000
     1.0000   1.0000   1.0000   1.0000   1.0000   1.0000   1.0000   1.0000
     1.0000   1.0000   1.0000   1.0000   1.0000   1.0000   1.0000   1.0000
     1.0000   1.0000   1.0000   1.0000   1.0000   1.0000   1.0000   1.0000
     1.0000   1.0000   1.0000   1.0000   1.0000   1.0000   1.0000   1.0000
     1.0000   1.0000   1.0000   1.0000   1.0000   1.0000   1.0000   1.0000
     1.0000   1.0000   1.0000   1.0000   1.0000   1.0000   1.0000   1.0000
     1.0000   1.0000   1.0000   1.0000   1.0000   1.0000   1.0000   1.0000
     1.0000   1.0000   1.0000   1.0000   1.0000   1.0000   1.0000   1.0000
     1.0000   1.0000   1.0000   1.0000   1.0000   1.0000   1.0000   1.0000
     1.0000   1.0000   1.0000   1.0000   1.0000   1.0000   1.0000   0.9994
     0.9994   0.0000   0.0000   0.0000   0.0000   0.0000   0.0000   0.0000
     0.0000   0.0000   0.0000   0.0000   0.0000   0.0000   0.0000   0.0000
     0.0000   0.0000

          k = 0.2857 0.4286 0.0000 ( 18474 PWs)   bands (ev):

    -6.1649  -5.8696  -5.4492  -5.3491  -4.7933  -4.7152  -4.6737  -4.6352
    -4.5644  -4.5204  -4.4645  -4.4492  -4.4475  -4.3764  -4.3199  -4.2841
    -4.2701  -4.1931  -4.1679  -4.0786  -4.0498  -4.0099  -3.8002  -3.7643
    -3.7205  -3.7069  -3.6426  -3.5785  -3.5353  -3.3715  -3.1612  -3.1469
    -3.1456  -3.1168  -3.0852  -3.0411  -3.0112  -2.9449  -2.8397  -2.8336
    -2.7763  -2.7758  -2.7294  -2.7269  -2.7208  -2.6683  -2.5699  -2.5197
    -2.4811  -2.3926  -2.3762  -2.3330  -2.2615  -2.2540  -2.2072  -2.2014
    -2.1377  -2.1016  -1.9905  -1.9570  -1.8833  -1.8803  -1.8454  -1.8269
    -1.8258  -1.7873  -1.7724  -1.7553  -1.7543  -1.7114  -1.7039  -1.6578
    -1.6453  -1.6223  -1.6028  -1.5212  -1.4944  -1.4308  -1.3794  -1.2901
    -1.2725  -1.2715  -1.2691  -1.2425  -0.5464  -0.2198   0.2512   0.3436
     0.6027   0.6646   0.7656   1.6514   2.2850   2.8040   3.1335   3.2248
     3.3109   3.4416   3.6425   3.7856   4.3855   4.5534   4.8157   4.8178
     4.8783   5.1116

     occupation numbers 
     1.0000   1.0000   1.0000   1.0000   1.0000   1.0000   1.0000   1.0000
     1.0000   1.0000   1.0000   1.0000   1.0000   1.0000   1.0000   1.0000
     1.0000   1.0000   1.0000   1.0000   1.0000   1.0000   1.0000   1.0000
     1.0000   1.0000   1.0000   1.0000   1.0000   1.0000   1.0000   1.0000
     1.0000   1.0000   1.0000   1.0000   1.0000   1.0000   1.0000   1.0000
     1.0000   1.0000   1.0000   1.0000   1.0000   1.0000   1.0000   1.0000
     1.0000   1.0000   1.0000   1.0000   1.0000   1.0000   1.0000   1.0000
     1.0000   1.0000   1.0000   1.0000   1.0000   1.0000   1.0000   1.0000
     1.0000   1.0000   1.0000   1.0000   1.0000   1.0000   1.0000   1.0000
     1.0000   1.0000   1.0000   1.0000   1.0000   1.0000   1.0000   1.0000
     1.0000   1.0000   1.0000   1.0000   1.0000   1.0000   0.8406   0.0137
     0.0000   0.0000   0.0000   0.0000   0.0000   0.0000   0.0000   0.0000
     0.0000   0.0000   0.0000   0.0000   0.0000   0.0000   0.0000   0.0000
     0.0000   0.0000

          k = 0.4286 0.4286 0.0000 ( 18476 PWs)   bands (ev):

    -5.9752  -5.7297  -5.7297  -5.5515  -4.7844  -4.7407  -4.7285  -4.7285
    -4.4321  -4.4319  -4.4275  -4.4275  -4.3820  -4.3817  -4.3347  -4.3347
    -4.0846  -4.0843  -4.0642  -3.9522  -3.9522  -3.9162  -3.9162  -3.8722
    -3.8721  -3.7815  -3.7813  -3.7670  -3.4088  -3.2598  -3.2598  -3.1796
    -3.1683  -3.1534  -3.1534  -3.0209  -2.8913  -2.8908  -2.7282  -2.7275
    -2.7275  -2.7007  -2.6923  -2.6923  -2.6328  -2.6328  -2.5680  -2.5680
    -2.5391  -2.4995  -2.4767  -2.4132  -2.4126  -2.4018  -2.4018  -2.2796
    -2.0624  -2.0624  -1.9966  -1.9964  -1.9494  -1.9491  -1.9297  -1.9297
    -1.8843  -1.8843  -1.8794  -1.8761  -1.6201  -1.6107  -1.6107  -1.5823
    -1.5823  -1.5713  -1.5711  -1.5351  -1.4628  -1.4628  -1.4314  -1.4311
    -1.2440  -1.2396  -1.2395  -1.2236  -0.3522  -0.0554  -0.0554   0.2135
     1.1569   1.1569   1.7064   1.7066   2.1457   2.1459   2.6608   2.6608
     3.6411   4.0639   4.0639   4.1346   4.1346   4.4179   4.4181   4.4193
     5.1321   5.1321

     occupation numbers 
     1.0000   1.0000   1.0000   1.0000   1.0000   1.0000   1.0000   1.0000
     1.0000   1.0000   1.0000   1.0000   1.0000   1.0000   1.0000   1.0000
     1.0000   1.0000   1.0000   1.0000   1.0000   1.0000   1.0000   1.0000
     1.0000   1.0000   1.0000   1.0000   1.0000   1.0000   1.0000   1.0000
     1.0000   1.0000   1.0000   1.0000   1.0000   1.0000   1.0000   1.0000
     1.0000   1.0000   1.0000   1.0000   1.0000   1.0000   1.0000   1.0000
     1.0000   1.0000   1.0000   1.0000   1.0000   1.0000   1.0000   1.0000
     1.0000   1.0000   1.0000   1.0000   1.0000   1.0000   1.0000   1.0000
     1.0000   1.0000   1.0000   1.0000   1.0000   1.0000   1.0000   1.0000
     1.0000   1.0000   1.0000   1.0000   1.0000   1.0000   1.0000   1.0000
     1.0000   1.0000   1.0000   1.0000   1.0000   1.0000   1.0000   0.9894
     0.0000   0.0000   0.0000   0.0000   0.0000   0.0000   0.0000   0.0000
     0.0000   0.0000   0.0000   0.0000   0.0000   0.0000   0.0000   0.0000
     0.0000   0.0000

     the Fermi energy is     0.2799 ev

!    total energy              =   -1839.20060145 Ry
     estimated scf accuracy    <       0.00000042 Ry
     smearing contrib. (-TS)   =      -0.00051577 Ry
     internal energy E=F+TS    =   -1839.20008568 Ry

     The total energy is F=E-TS. E is the sum of the following terms:
     one-electron contribution =   -3574.47036243 Ry
     hartree contribution      =    1914.79426175 Ry
     xc contribution           =    -994.40421570 Ry
     ewald contribution        =     814.88023070 Ry

     convergence has been achieved in   4 iterations

     negative rho (up, down):  7.583E-05 0.000E+00

     Forces acting on atoms (cartesian axes, Ry/au):

     atom    1 type  1   force =     0.00000000    0.00000000    0.00891153
     atom    2 type  1   force =     0.00000000    0.00002243   -0.00887955
     atom    3 type  1   force =     0.00002243    0.00000000   -0.00887955
     atom    4 type  1   force =     0.00002162    0.00002162    0.00884853
     atom    5 type  1   force =     0.00000000    0.00000000    0.00892337
     atom    6 type  1   force =     0.00000000   -0.00002243   -0.00887955
     atom    7 type  1   force =     0.00002089    0.00000000   -0.00889223
     atom    8 type  1   force =     0.00002162   -0.00002162    0.00884853
     atom    9 type  1   force =     0.00000000    0.00000000    0.00892337
     atom   10 type  1   force =     0.00000000    0.00002089   -0.00889223
     atom   11 type  1   force =    -0.00002243    0.00000000   -0.00887955
     atom   12 type  1   force =    -0.00002162    0.00002162    0.00884853
     atom   13 type  1   force =     0.00000000    0.00000000    0.00893472
     atom   14 type  1   force =     0.00000000   -0.00002089   -0.00889223
     atom   15 type  1   force =    -0.00002089    0.00000000   -0.00889223
     atom   16 type  1   force =    -0.00002162   -0.00002162    0.00884853
     The non-local contrib.  to forces
     atom    1 type  1   force =     0.00000000    0.00000000    0.01924774
     atom    2 type  1   force =     0.00000000    0.00001428   -0.01902093
     atom    3 type  1   force =     0.00001428    0.00000000   -0.01902093
     atom    4 type  1   force =     0.00001387    0.00001387    0.01925492
     atom    5 type  1   force =     0.00000000    0.00000000    0.01925781
     atom    6 type  1   force =     0.00000000   -0.00001428   -0.01902093
     atom    7 type  1   force =     0.00001387    0.00000000   -0.01902938
     atom    8 type  1   force =     0.00001387   -0.00001387    0.01925492
     atom    9 type  1   force =     0.00000000    0.00000000    0.01925781
     atom   10 type  1   force =     0.00000000    0.00001387   -0.01902938
     atom   11 type  1   force =    -0.00001428    0.00000000   -0.01902093
     atom   12 type  1   force =    -0.00001387    0.00001387    0.01925492
     atom   13 type  1   force =     0.00000000    0.00000000    0.01926331
     atom   14 type  1   force =     0.00000000   -0.00001387   -0.01902938
     atom   15 type  1   force =    -0.00001387    0.00000000   -0.01902938
     atom   16 type  1   force =    -0.00001387   -0.00001387    0.01925492
     The ionic contribution  to forces
     atom    1 type  1   force =    -0.00003841   -0.00003841  -32.63898330
     atom    2 type  1   force =    -0.00003841   -0.00004833   32.63941653
     atom    3 type  1   force =    -0.00004833   -0.00003841   32.63941653
     atom    4 type  1   force =    -0.00002338   -0.00002338  -32.63981677
     atom    5 type  1   force =    -0.00003841    0.00001492  -32.63903271
     atom    6 type  1   force =    -0.00003841    0.00007182   32.63939985
     atom    7 type  1   force =     0.00000322    0.00001492   32.63940819
     atom    8 type  1   force =    -0.00002338    0.00004687  -32.63980009
     atom    9 type  1   force =     0.00001492   -0.00003841  -32.63903271
     atom   10 type  1   force =     0.00001492    0.00000322   32.63940819
     atom   11 type  1   force =     0.00007182   -0.00003841   32.63939985
     atom   12 type  1   force =     0.00004687   -0.00002338  -32.63980009
     atom   13 type  1   force =     0.00001492    0.00001492  -32.63898309
     atom   14 type  1   force =     0.00001492    0.00002027   32.63939151
     atom   15 type  1   force =     0.00002027    0.00001492   32.63939151
     atom   16 type  1   force =     0.00004687    0.00004687  -32.63978341
     The local contribution  to forces
     atom    1 type  1   force =    -0.00000000   -0.00000000   32.60098669
     atom    2 type  1   force =    -0.00000000    0.00002372  -32.60263690
[...]
     1.0000   1.0000   1.0000   1.0000   1.0000   1.0000   1.0000   1.0000
     1.0000   1.0000   1.0000   1.0000   1.0000   1.0000   1.0000   1.0000
     1.0000   1.0000   1.0000   1.0000   1.0000   1.0000   0.9675   0.0000
     0.0000   0.0000   0.0000   0.0000   0.0000   0.0000   0.0000   0.0000
     0.0000   0.0000   0.0000   0.0000   0.0000   0.0000   0.0000   0.0000
     0.0000   0.0000

          k = 0.4286 0.4286 0.0000 ( 18476 PWs)   bands (ev):

    -6.1004  -5.8540  -5.8540  -5.6742  -4.8803  -4.8491  -4.8311  -4.8311
    -4.5519  -4.5519  -4.5402  -4.5402  -4.4918  -4.4918  -4.4539  -4.4539
    -4.2044  -4.2044  -4.1599  -4.0653  -4.0653  -4.0334  -4.0334  -3.9636
    -3.9636  -3.8933  -3.8933  -3.8424  -3.3878  -3.2469  -3.2393  -3.2393
    -3.2146  -3.2146  -3.1377  -3.0851  -2.9127  -2.9127  -2.8493  -2.8464
    -2.8464  -2.8175  -2.7309  -2.7309  -2.6582  -2.6582  -2.6048  -2.5801
    -2.5801  -2.4782  -2.4608  -2.4510  -2.4510  -2.4461  -2.4461  -2.3790
    -2.0183  -2.0183  -1.9467  -1.9467  -1.9107  -1.9107  -1.8843  -1.8843
    -1.8746  -1.8746  -1.8701  -1.8622  -1.5950  -1.5950  -1.5843  -1.5778
    -1.5778  -1.5761  -1.5761  -1.5053  -1.4517  -1.4517  -1.4283  -1.4283
    -1.2001  -1.1974  -1.1974  -1.1849  -0.2915   0.0151   0.0151   0.2899
     1.1371   1.1372   1.6839   1.6839   2.1260   2.1260   2.6503   2.6503
     3.7116   4.1288   4.1288   4.2213   4.2213   4.4771   4.4990   4.4990
     5.2218   5.2218

     occupation numbers 
     1.0000   1.0000   1.0000   1.0000   1.0000   1.0000   1.0000   1.0000
     1.0000   1.0000   1.0000   1.0000   1.0000   1.0000   1.0000   1.0000
     1.0000   1.0000   1.0000   1.0000   1.0000   1.0000   1.0000   1.0000
     1.0000   1.0000   1.0000   1.0000   1.0000   1.0000   1.0000   1.0000
     1.0000   1.0000   1.0000   1.0000   1.0000   1.0000   1.0000   1.0000
     1.0000   1.0000   1.0000   1.0000   1.0000   1.0000   1.0000   1.0000
     1.0000   1.0000   1.0000   1.0000   1.0000   1.0000   1.0000   1.0000
     1.0000   1.0000   1.0000   1.0000   1.0000   1.0000   1.0000   1.0000
     1.0000   1.0000   1.0000   1.0000   1.0000   1.0000   1.0000   1.0000
     1.0000   1.0000   1.0000   1.0000   1.0000   1.0000   1.0000   1.0000
     1.0000   1.0000   1.0000   1.0000   1.0000   1.0000   1.0000   0.5172
     0.0000   0.0000   0.0000   0.0000   0.0000   0.0000   0.0000   0.0000
     0.0000   0.0000   0.0000   0.0000   0.0000   0.0000   0.0000   0.0000
     0.0000   0.0000

     the Fermi energy is     0.2912 ev

!    total energy              =   -1839.20477697 Ry
     estimated scf accuracy    <          2.7E-09 Ry
     smearing contrib. (-TS)   =      -0.00061729 Ry
     internal energy E=F+TS    =   -1839.20415968 Ry

     The total energy is F=E-TS. E is the sum of the following terms:
     one-electron contribution =   -3636.70283326 Ry
     hartree contribution      =    1945.77845877 Ry
     xc contribution           =    -994.57008904 Ry
     ewald contribution        =     846.29030386 Ry

     convergence has been achieved in   3 iterations

     negative rho (up, down):  7.854E-05 0.000E+00

     Forces acting on atoms (cartesian axes, Ry/au):

     atom    1 type  1   force =     0.00000000    0.00000000   -0.00002104
     atom    2 type  1   force =     0.00000000    0.00001702    0.00001546
     atom    3 type  1   force =     0.00001702    0.00000000    0.00001546
     atom    4 type  1   force =     0.00001918    0.00001918   -0.00000863
     atom    5 type  1   force =     0.00000000    0.00000000   -0.00000555
     atom    6 type  1   force =     0.00000000   -0.00001702    0.00001546
     atom    7 type  1   force =     0.00001897    0.00000000   -0.00000227
     atom    8 type  1   force =     0.00001918   -0.00001918   -0.00000863
     atom    9 type  1   force =     0.00000000    0.00000000   -0.00000555
     atom   10 type  1   force =     0.00000000    0.00001897   -0.00000227
     atom   11 type  1   force =    -0.00001702    0.00000000    0.00001546
     atom   12 type  1   force =    -0.00001918    0.00001918   -0.00000863
     atom   13 type  1   force =     0.00000000    0.00000000    0.00001392
     atom   14 type  1   force =     0.00000000   -0.00001897   -0.00000227
     atom   15 type  1   force =    -0.00001897    0.00000000   -0.00000227
     atom   16 type  1   force =    -0.00001918   -0.00001918   -0.00000863
     The non-local contrib.  to forces
     atom    1 type  1   force =     0.00000000    0.00000000    0.01819565
     atom    2 type  1   force =     0.00000000    0.00001282   -0.01819901
     atom    3 type  1   force =     0.00001282    0.00000000   -0.01819901
     atom    4 type  1   force =     0.00001422    0.00001422    0.01819955
     atom    5 type  1   force =     0.00000000    0.00000000    0.01819227
     atom    6 type  1   force =     0.00000000   -0.00001282   -0.01819901
     atom    7 type  1   force =     0.00001428    0.00000000   -0.01819606
     atom    8 type  1   force =     0.00001422   -0.00001422    0.01819955
     atom    9 type  1   force =     0.00000000    0.00000000    0.01819227
     atom   10 type  1   force =     0.00000000    0.00001428   -0.01819606
     atom   11 type  1   force =    -0.00001282    0.00000000   -0.01819901
     atom   12 type  1   force =    -0.00001422    0.00001422    0.01819955
     atom   13 type  1   force =     0.00000000    0.00000000    0.01818955
     atom   14 type  1   force =     0.00000000   -0.00001428   -0.01819606
     atom   15 type  1   force =    -0.00001428    0.00000000   -0.01819606
     atom   16 type  1   force =    -0.00001422   -0.00001422    0.01819955
     The ionic contribution  to forces
     atom    1 type  1   force =    -0.00003938   -0.00003938  -32.81557193
     atom    2 type  1   force =    -0.00003937    0.00111196   32.81901924
     atom    3 type  1   force =     0.00111196   -0.00003937   32.81901924
     atom    4 type  1   force =     0.00113835    0.00113835  -32.82240897
     atom    5 type  1   force =    -0.00003938    0.00001507  -32.81503144
     atom    6 type  1   force =    -0.00003937   -0.00108766   32.81900181
     atom    7 type  1   force =     0.00120139    0.00001507   32.81838943
     atom    8 type  1   force =     0.00113835   -0.00111404  -32.82239154
     atom    9 type  1   force =     0.00001507   -0.00003938  -32.81503144
     atom   10 type  1   force =     0.00001507    0.00120139   32.81838943
     atom   11 type  1   force =    -0.00108766   -0.00003937   32.81900181
     atom   12 type  1   force =    -0.00111404    0.00113835  -32.82239154
     atom   13 type  1   force =     0.00001507    0.00001507  -32.81436398
     atom   14 type  1   force =     0.00001507   -0.00117709   32.81837200
     atom   15 type  1   force =    -0.00117709    0.00001507   32.81837200
     atom   16 type  1   force =    -0.00111404   -0.00111404  -32.82237412
     The local contribution  to forces
     atom    1 type  1   force =    -0.00000000   -0.00000000   32.76806874
     atom    2 type  1   force =    -0.00000000   -0.00105521  -32.77153837
     atom    3 type  1   force =    -0.00105521   -0.00000000  -32.77153837
     atom    4 type  1   force =    -0.00107917   -0.00107917   32.77494208
     atom    5 type  1   force =    -0.00000000    0.00004952   32.76753861
     atom    6 type  1   force =    -0.00000000    0.00115424  -32.77153837
     atom    7 type  1   force =    -0.00114396    0.00004952  -32.77092342
     atom    8 type  1   force =    -0.00107917    0.00117821   32.77494207
     atom    9 type  1   force =     0.00004952   -0.00000000   32.76753861
     atom   10 type  1   force =     0.00004952   -0.00114396  -32.77092342
     atom   11 type  1   force =     0.00115424   -0.00000000  -32.77153837
     atom   12 type  1   force =     0.00117821   -0.00107917   32.77494207
     atom   13 type  1   force =     0.00004952    0.00004952   32.76689009
     atom   14 type  1   force =     0.00004952    0.00124300  -32.77092342
     atom   15 type  1   force =     0.00124300    0.00004952  -32.77092342
     atom   16 type  1   force =     0.00117821    0.00117821   32.77494207
     The core correction contribution to forces
     atom    1 type  1   force =    -0.00000000   -0.00000000    0.02936288
     atom    2 type  1   force =    -0.00000000    0.00001009   -0.02934013
     atom    3 type  1   force =     0.00001009   -0.00000000   -0.02934013
     atom    4 type  1   force =     0.00001029    0.00001029    0.02930322
     atom    5 type  1   force =    -0.00000000    0.00001505    0.02935683
     atom    6 type  1   force =    -0.00000000    0.00002002   -0.02934014
     atom    7 type  1   force =     0.00000994    0.00001505   -0.02933424
     atom    8 type  1   force =     0.00001029    0.00001982    0.02930323
     atom    9 type  1   force =     0.00001505   -0.00000000    0.02935683
     atom   10 type  1   force =     0.00001505    0.00000994   -0.02933424
     atom   11 type  1   force =     0.00002002   -0.00000000   -0.02934014
     atom   12 type  1   force =     0.00001982    0.00001029    0.02930323
     atom   13 type  1   force =     0.00001505    0.00001505    0.02935177
     atom   14 type  1   force =     0.00001505    0.00002016   -0.02933424
     atom   15 type  1   force =     0.00002016    0.00001505   -0.02933424
     atom   16 type  1   force =     0.00001982    0.00001982    0.02930324
     The Hubbard contrib.    to forces
     atom    1 type  1   force =     0.00000000    0.00000000    0.00000000
     atom    2 type  1   force =     0.00000000    0.00000000    0.00000000
     atom    3 type  1   force =     0.00000000    0.00000000    0.00000000
     atom    4 type  1   force =     0.00000000    0.00000000    0.00000000
     atom    5 type  1   force =     0.00000000    0.00000000    0.00000000
     atom    6 type  1   force =     0.00000000    0.00000000    0.00000000
     atom    7 type  1   force =     0.00000000    0.00000000    0.00000000
     atom    8 type  1   force =     0.00000000    0.00000000    0.00000000
     atom    9 type  1   force =     0.00000000    0.00000000    0.00000000
     atom   10 type  1   force =     0.00000000    0.00000000    0.00000000
     atom   11 type  1   force =     0.00000000    0.00000000    0.00000000
     atom   12 type  1   force =     0.00000000    0.00000000    0.00000000
     atom   13 type  1   force =     0.00000000    0.00000000    0.00000000
     atom   14 type  1   force =     0.00000000    0.00000000    0.00000000
     atom   15 type  1   force =     0.00000000    0.00000000    0.00000000
     atom   16 type  1   force =     0.00000000    0.00000000    0.00000000
     The SCF correction term to forces
     atom    1 type  1   force =    -0.00000000   -0.00000000   -0.00008029
     atom    2 type  1   force =    -0.00000000    0.00001407    0.00007853
     atom    3 type  1   force =     0.00001407   -0.00000000    0.00007853
     atom    4 type  1   force =     0.00001221    0.00001221   -0.00006587
     atom    5 type  1   force =    -0.00000000   -0.00000000   -0.00006575
     atom    6 type  1   force =    -0.00000000   -0.00001407    0.00007853
     atom    7 type  1   force =     0.00001405   -0.00000000    0.00006681
     atom    8 type  1   force =     0.00001221   -0.00001221   -0.00006587
     atom    9 type  1   force =    -0.00000000   -0.00000000   -0.00006575
     atom   10 type  1   force =    -0.00000000    0.00001405    0.00006681
     atom   11 type  1   force =    -0.00001407   -0.00000000    0.00007853
     atom   12 type  1   force =    -0.00001221    0.00001221   -0.00006587
     atom   13 type  1   force =    -0.00000000   -0.00000000   -0.00005743
     atom   14 type  1   force =    -0.00000000   -0.00001405    0.00006681
     atom   15 type  1   force =    -0.00001405   -0.00000000    0.00006681
     atom   16 type  1   force =    -0.00001221   -0.00001221   -0.00006587

     Total force =     0.000087     Total SCF correction =     0.000285
     SCF correction compared to forces is large: reduce conv_thr to get better values


     Computing stress (Cartesian axis) and pressure


     negative rho (up, down):  7.854E-05 0.000E+00
          total   stress  (Ry/bohr**3)                   (kbar)     P=      -21.88
  -0.00022153   0.00000000   0.00000000          -32.59        0.00        0.00
   0.00000000  -0.00022153   0.00000000            0.00      -32.59        0.00
   0.00000000   0.00000000  -0.00000318            0.00        0.00       -0.47

     kinetic stress (kbar)   5915.81      0.00      0.00
                                0.00   5915.81      0.00
                                0.00      0.00   5998.97

     local   stress (kbar) -74927.03     -0.00     -0.00
                               -0.00 -74927.03     -0.00
                               -0.00     -0.00  88698.51

     nonloc. stress (kbar)  -3786.13      0.00      0.00
                                0.00  -3786.13      0.00
                                0.00      0.00  -3790.96

     hartree stress (kbar)  40513.48      0.00      0.00
                                0.00  40513.48     -0.00
                                0.00     -0.00 -38022.42

     exc-cor stress (kbar)  15341.96      0.00      0.00
                                0.00  15341.96      0.00
                                0.00      0.00  15335.59

     corecor stress (kbar) -17699.06      0.00      0.00
                                0.00 -17699.06      0.00
                                0.00      0.00 -17707.65

     ewald   stress (kbar)  34608.38      0.00      0.00
                                0.00  34608.38      0.00
                                0.00      0.00 -50512.51

     hubbard stress (kbar)      0.00      0.00      0.00
                                0.00      0.00      0.00
                                0.00      0.00      0.00

     DFT-D   stress (kbar)      0.00      0.00      0.00
                                0.00      0.00      0.00
                                0.00      0.00      0.00

     XDM     stress (kbar)      0.00      0.00      0.00
                                0.00      0.00      0.00
                                0.00      0.00      0.00

     dft-nl  stress (kbar)      0.00      0.00      0.00
                                0.00      0.00      0.00
                                0.00      0.00      0.00

     TS-vdW  stress (kbar)      0.00      0.00      0.00
                                0.00      0.00      0.00
                                0.00      0.00      0.00


     Energy error            =      4.3E-08
     Gradient error          =      2.1E-05

     bfgs converged in   7 scf cycles and   6 bfgs steps
     (criteria: energy <  1.0E-04 Ry, force <  1.0E-03 Ry/Bohr)

     End of BFGS Geometry Optimization

     Final energy   =   -1839.2047769667 Ry

     File ./surface.bfgs deleted, as requested
Begin final coordinates

ATOMIC_POSITIONS (angstrom)
Au            0.0000000000        0.0000000000        0.0369738177
Au            0.0000000000        2.0856037201        2.0488490184
Au            2.0856037201        0.0000000000        2.0488490184
Au            2.0856028556        2.0856028556        0.0366187290
Au            0.0000000000        4.1712880000        0.0369643413
Au            0.0000000000        6.2569722799        2.0488490184
Au            2.0856005010        4.1712880000        2.0488554174
Au            2.0856028556        6.2569731444        0.0366187290
Au            4.1712880000        0.0000000000        0.0369643413
Au            4.1712880000        2.0856005010        2.0488554174
Au            6.2569722799        0.0000000000        2.0488490184
Au            6.2569731444        2.0856028556        0.0366187290
Au            4.1712880000        4.1712880000        0.0369568404
Au            4.1712880000        6.2569754990        2.0488554174
Au            6.2569754990        4.1712880000        2.0488554174
Au            6.2569731444        6.2569731444        0.0366187290
End final coordinates



     Writing output data file ./surface.save/

     init_run     :      1.91s CPU      2.02s WALL (       1 calls)
     electrons    :    197.61s CPU    206.46s WALL (       7 calls)
     update_pot   :      1.94s CPU      1.96s WALL (       6 calls)
     forces       :      9.00s CPU      9.49s WALL (       7 calls)
     stress       :     36.26s CPU     37.05s WALL (       7 calls)

     Called by init_run:
     wfcinit      :      1.04s CPU      1.07s WALL (       1 calls)
     wfcinit:atom :      0.01s CPU      0.01s WALL (      10 calls)
     wfcinit:wfcr :      0.97s CPU      1.00s WALL (      10 calls)
     potinit      :      0.13s CPU      0.14s WALL (       1 calls)
     hinit0       :      0.23s CPU      0.25s WALL (       1 calls)

     Called by electrons:
     c_bands      :    160.14s CPU    162.24s WALL (      53 calls)
     sum_band     :     27.53s CPU     31.27s WALL (      53 calls)
     v_of_rho     :      1.78s CPU      1.89s WALL (      53 calls)
     v_h          :      0.14s CPU      0.15s WALL (      53 calls)
     v_xc         :      2.11s CPU      2.23s WALL (      67 calls)
     newd         :      9.11s CPU     11.91s WALL (      53 calls)
     mix_rho      :      0.17s CPU      0.18s WALL (      53 calls)

     Called by c_bands:
     init_us_2    :      2.76s CPU      2.81s WALL (    1210 calls)
     cegterg      :    153.85s CPU    155.80s WALL (     530 calls)

     Called by sum_band:
     sum_band:wei :      0.02s CPU      0.02s WALL (      53 calls)
     sum_band:loo :     15.68s CPU     15.95s WALL (      53 calls)
     sum_band:buf :      0.37s CPU      0.39s WALL (     530 calls)
     sum_band:ini :      1.28s CPU      1.30s WALL (     530 calls)
     sum_band:cal :      5.78s CPU      5.82s WALL (     530 calls)
     sum_band:bec :      0.22s CPU      0.23s WALL (     530 calls)
     addusdens    :     10.13s CPU     13.57s WALL (      53 calls)
     addusd:skk   :      0.13s CPU      0.14s WALL (      53 calls)
     addusd:dgemm :      4.39s CPU      7.72s WALL (      53 calls)
     addusd:qvan2 :      4.50s CPU      4.54s WALL (      53 calls)

     Called by *egterg:
     cdiaghg      :     22.60s CPU     22.81s WALL (    2266 calls)
     cegterg:over :     13.60s CPU     13.74s WALL (    1866 calls)
     cegterg:upda :      7.05s CPU      7.13s WALL (    1866 calls)
     cegterg:last :     17.34s CPU     17.48s WALL (    1430 calls)
     cdiaghg:chol :      1.10s CPU      1.12s WALL (    2266 calls)
     cdiaghg:inve :      0.98s CPU      1.00s WALL (    2266 calls)
     cdiaghg:para :      2.14s CPU      2.16s WALL (    4532 calls)
     h_psi        :     77.20s CPU     78.44s WALL (    2406 calls)
     s_psi        :     11.90s CPU     12.00s WALL (    2406 calls)
     g_psi        :      0.18s CPU      0.18s WALL (    1866 calls)

     Called by h_psi:
     h_psi:calbec :     19.24s CPU     19.41s WALL (    2406 calls)
     vloc_psi     :     45.15s CPU     46.11s WALL (    2406 calls)
     add_vuspsi   :     12.19s CPU     12.30s WALL (    2406 calls)

     General routines
     calbec       :     30.19s CPU     30.46s WALL (    3286 calls)
     fft          :      1.68s CPU      1.73s WALL (     863 calls)
     ffts         :      0.04s CPU      0.05s WALL (     106 calls)
     fftw         :     48.66s CPU     49.69s WALL (  393334 calls)
     interpolate  :      0.11s CPU      0.11s WALL (      53 calls)

     Parallel routines
     fft_scatt_xy :      4.26s CPU      4.35s WALL (  394303 calls)
     fft_scatt_yz :     23.63s CPU     24.15s WALL (  394303 calls)

     PWSCF        :   4m 8.41s CPU   4m19.87s WALL


   This run was terminated on:   0:29:39   6Dec2021            

=------------------------------------------------------------------------------=
   JOB DONE.
=------------------------------------------------------------------------------=
