
     Program PWSCF v.6.7MaX starts on  6Dec2021 at  0:25:19 

     This program is part of the open-source Quantum ESPRESSO suite
     for quantum simulation of materials; please cite
         "P. Giannozzi et al., J. Phys.:Condens. Matter 21 395502 (2009);
         "P. Giannozzi et al., J. Phys.:Condens. Matter 29 465901 (2017);
          URL http://www.quantum-espresso.org", 
     in publications or presentations arising from this work. More details at
     http://www.quantum-espresso.org/quote

     Parallel version (MPI), running on    32 processors

     MPI processes distributed on     1 nodes
     R & G space division:  proc/nbgrp/npool/nimage =      32
     Reading input from au_surface.100.k.qe.6_6_1.in

     Current dimensions of program PWSCF are:
     Max number of different atomic species (ntypx) = 10
     Max number of k-points (npk) =  40000
     Max angular momentum in pseudopotentials (lmaxx) =  3

     Subspace diagonalization in iterative solution of the eigenvalue problem:
     one sub-group per band group will be used
     scalapack distributed-memory algorithm (size of sub-group:  5*  5 procs)

     Found symmetry operation: I + (  0.2500  0.2500  0.0000)
     This is a supercell, fractional translations are disabled

     Parallelization info
     --------------------
     sticks:   dense  smooth     PW     G-vecs:    dense   smooth      PW
     Min         185      74     20                18243     4618     670
     Max         186      75     21                18250     4623     677
     Sum        5949    2377    665               583927   147845   21545



     bravais-lattice index     =            8
     lattice parameter (alat)  =      15.7652  a.u.
     unit-cell volume          =    6655.8994 (a.u.)^3
     number of atoms/cell      =           16
     number of atomic types    =            1
     number of electrons       =       176.00
     number of Kohn-Sham states=          106
     kinetic-energy cutoff     =      30.0000  Ry
     charge density cutoff     =     300.0000  Ry
     scf convergence threshold =      1.0E-06
     mixing beta               =       0.3000
     number of iterations used =            8  plain     mixing
     energy convergence thresh.=      1.0E-04
     force convergence thresh. =      1.0E-03
     Exchange-correlation= SLA  PW   PBE  PBE
                           (   1   4   3   4   0   0   0)
     nstep                     =           50


     celldm(1)=  15.765191  celldm(2)=   1.000000  celldm(3)=   1.698670
     celldm(4)=   0.000000  celldm(5)=   0.000000  celldm(6)=   0.000000

     crystal axes: (cart. coord. in units of alat)
               a(1) = (   1.000000   0.000000   0.000000 )  
               a(2) = (   0.000000   1.000000   0.000000 )  
               a(3) = (   0.000000   0.000000   1.698670 )  

     reciprocal axes: (cart. coord. in units 2 pi/alat)
               b(1) = (  1.000000  0.000000  0.000000 )  
               b(2) = (  0.000000  1.000000  0.000000 )  
               b(3) = (  0.000000  0.000000  0.588696 )  


     PseudoPot. # 1 for Au read from file:
     /expanse/lustre/projects/csd622/tpascal/nano110/qe/pseudo/au_pbe_v1.uspp.F.UPF
     MD5 check sum: 9d7f43293ad2c663164586bc4b293ffc
     Pseudo is Ultrasoft + core correction, Zval = 11.0
     Generated by new atomic code, or converted to UPF format
     Using radial grid of  985 points,  7 beta functions with: 
                l(1) =   0
                l(2) =   0
                l(3) =   1
                l(4) =   1
                l(5) =   2
                l(6) =   2
                l(7) =   3
     Q(r) pseudized with  6 coefficients,  rinner =    1.900   1.900   1.900
                                                       1.900   1.900   1.900
                                                       1.900

     atomic species   valence    mass     pseudopotential
        Au            11.00   196.96655     Au( 1.00)

      8 Sym. Ops. (no inversion) found


                                    s                        frac. trans.

      isym =  1     identity                                     

 cryst.   s( 1) = (     1          0          0      )
                  (     0          1          0      )
                  (     0          0          1      )

 cart.    s( 1) = (  1.0000000  0.0000000  0.0000000 )
                  (  0.0000000  1.0000000  0.0000000 )
                  (  0.0000000  0.0000000  1.0000000 )


      isym =  2     180 deg rotation - cart. axis [0,0,1]        

 cryst.   s( 2) = (    -1          0          0      )
                  (     0         -1          0      )
                  (     0          0          1      )

 cart.    s( 2) = ( -1.0000000  0.0000000  0.0000000 )
                  (  0.0000000 -1.0000000  0.0000000 )
                  (  0.0000000  0.0000000  1.0000000 )


      isym =  3      90 deg rotation - cart. axis [0,0,-1]       

 cryst.   s( 3) = (     0         -1          0      )
                  (     1          0          0      )
                  (     0          0          1      )

 cart.    s( 3) = (  0.0000000  1.0000000  0.0000000 )
                  ( -1.0000000  0.0000000  0.0000000 )
                  (  0.0000000  0.0000000  1.0000000 )


      isym =  4      90 deg rotation - cart. axis [0,0,1]        

 cryst.   s( 4) = (     0          1          0      )
                  (    -1          0          0      )
                  (     0          0          1      )

 cart.    s( 4) = (  0.0000000 -1.0000000  0.0000000 )
                  (  1.0000000  0.0000000  0.0000000 )
                  (  0.0000000  0.0000000  1.0000000 )


      isym =  5     inv. 180 deg rotation - cart. axis [0,1,0]   

 cryst.   s( 5) = (     1          0          0      )
                  (     0         -1          0      )
                  (     0          0          1      )

 cart.    s( 5) = (  1.0000000  0.0000000  0.0000000 )
                  (  0.0000000 -1.0000000  0.0000000 )
                  (  0.0000000  0.0000000  1.0000000 )


      isym =  6     inv. 180 deg rotation - cart. axis [1,0,0]   

 cryst.   s( 6) = (    -1          0          0      )
                  (     0          1          0      )
                  (     0          0          1      )

 cart.    s( 6) = ( -1.0000000  0.0000000  0.0000000 )
                  (  0.0000000  1.0000000  0.0000000 )
                  (  0.0000000  0.0000000  1.0000000 )


      isym =  7     inv. 180 deg rotation - cart. axis [1,1,0]   

 cryst.   s( 7) = (     0         -1          0      )
                  (    -1          0          0      )
                  (     0          0          1      )

 cart.    s( 7) = (  0.0000000 -1.0000000  0.0000000 )
                  ( -1.0000000  0.0000000  0.0000000 )
                  (  0.0000000  0.0000000  1.0000000 )


      isym =  8     inv. 180 deg rotation - cart. axis [1,-1,0]  

 cryst.   s( 8) = (     0          1          0      )
                  (     1          0          0      )
                  (     0          0          1      )

 cart.    s( 8) = (  0.0000000  1.0000000  0.0000000 )
                  (  1.0000000  0.0000000  0.0000000 )
                  (  0.0000000  0.0000000  1.0000000 )


     point group C_4v (4mm) 
     there are  5 classes
     the character table:

       E     2C4   C2    2s_v  2s_d 
A_1    1.00  1.00  1.00  1.00  1.00
A_2    1.00  1.00  1.00 -1.00 -1.00
B_1    1.00 -1.00  1.00  1.00 -1.00
B_2    1.00 -1.00  1.00 -1.00  1.00
E      2.00  0.00 -2.00  0.00  0.00

     the symmetry operations in each class and the name of the first element:

     E        1
          identity                                               
     2C4      3    4
           90 deg rotation - cart. axis [0,0,-1]                 
     C2       2
          180 deg rotation - cart. axis [0,0,1]                  
     2s_v     5    6
          inv. 180 deg rotation - cart. axis [0,1,0]             
     2s_d     7    8
          inv. 180 deg rotation - cart. axis [1,1,0]             

   Cartesian axes

     site n.     atom                  positions (alat units)
         1           Au  tau(   1) = (   0.0000000   0.0000000   0.0000000  )
         2           Au  tau(   2) = (   0.0000000   0.2499999   0.2499999  )
         3           Au  tau(   3) = (   0.2499999   0.0000000   0.2499999  )
         4           Au  tau(   4) = (   0.2499999   0.2499999   0.0000000  )
         5           Au  tau(   5) = (   0.0000000   0.4999998   0.0000000  )
         6           Au  tau(   6) = (   0.0000000   0.7499996   0.2499999  )
         7           Au  tau(   7) = (   0.2499999   0.4999998   0.2499999  )
         8           Au  tau(   8) = (   0.2499999   0.7499996   0.0000000  )
         9           Au  tau(   9) = (   0.4999998   0.0000000   0.0000000  )
        10           Au  tau(  10) = (   0.4999998   0.2499999   0.2499999  )
        11           Au  tau(  11) = (   0.7499996   0.0000000   0.2499999  )
        12           Au  tau(  12) = (   0.7499996   0.2499999   0.0000000  )
        13           Au  tau(  13) = (   0.4999998   0.4999998   0.0000000  )
        14           Au  tau(  14) = (   0.4999998   0.7499996   0.2499999  )
        15           Au  tau(  15) = (   0.7499996   0.4999998   0.2499999  )
        16           Au  tau(  16) = (   0.7499996   0.7499996   0.0000000  )

   Crystallographic axes

     site n.     atom                  positions (cryst. coord.)
         1           Au  tau(   1) = (  0.0000000  0.0000000  0.0000000  )
         2           Au  tau(   2) = (  0.0000000  0.2499999  0.1471739  )
         3           Au  tau(   3) = (  0.2499999  0.0000000  0.1471739  )
         4           Au  tau(   4) = (  0.2499999  0.2499999  0.0000000  )
         5           Au  tau(   5) = (  0.0000000  0.4999998  0.0000000  )
         6           Au  tau(   6) = (  0.0000000  0.7499996  0.1471739  )
         7           Au  tau(   7) = (  0.2499999  0.4999998  0.1471739  )
         8           Au  tau(   8) = (  0.2499999  0.7499996  0.0000000  )
         9           Au  tau(   9) = (  0.4999998  0.0000000  0.0000000  )
        10           Au  tau(  10) = (  0.4999998  0.2499999  0.1471739  )
        11           Au  tau(  11) = (  0.7499996  0.0000000  0.1471739  )
        12           Au  tau(  12) = (  0.7499996  0.2499999  0.0000000  )
        13           Au  tau(  13) = (  0.4999998  0.4999998  0.0000000  )
        14           Au  tau(  14) = (  0.4999998  0.7499996  0.1471739  )
        15           Au  tau(  15) = (  0.7499996  0.4999998  0.1471739  )
        16           Au  tau(  16) = (  0.7499996  0.7499996  0.0000000  )

     number of k points=    10  Gaussian smearing, width (Ry)=  0.0030
                       cart. coord. in units 2pi/alat
        k(    1) = (   0.0000000   0.0000000   0.0000000), wk =   0.0555556
        k(    2) = (   0.0000000   0.1666667   0.0000000), wk =   0.2222222
        k(    3) = (   0.0000000   0.3333333   0.0000000), wk =   0.2222222
        k(    4) = (   0.0000000  -0.5000000   0.0000000), wk =   0.1111111
        k(    5) = (   0.1666667   0.1666667   0.0000000), wk =   0.2222222
        k(    6) = (   0.1666667   0.3333333   0.0000000), wk =   0.4444444
        k(    7) = (   0.1666667  -0.5000000   0.0000000), wk =   0.2222222
        k(    8) = (   0.3333333   0.3333333   0.0000000), wk =   0.2222222
        k(    9) = (   0.3333333  -0.5000000   0.0000000), wk =   0.2222222
        k(   10) = (  -0.5000000  -0.5000000   0.0000000), wk =   0.0555556

                       cryst. coord.
        k(    1) = (   0.0000000   0.0000000   0.0000000), wk =   0.0555556
        k(    2) = (   0.0000000   0.1666667   0.0000000), wk =   0.2222222
        k(    3) = (   0.0000000   0.3333333   0.0000000), wk =   0.2222222
        k(    4) = (   0.0000000  -0.5000000   0.0000000), wk =   0.1111111
        k(    5) = (   0.1666667   0.1666667   0.0000000), wk =   0.2222222
        k(    6) = (   0.1666667   0.3333333   0.0000000), wk =   0.4444444
        k(    7) = (   0.1666667  -0.5000000   0.0000000), wk =   0.2222222
        k(    8) = (   0.3333333   0.3333333   0.0000000), wk =   0.2222222
        k(    9) = (   0.3333333  -0.5000000   0.0000000), wk =   0.2222222
        k(   10) = (  -0.5000000  -0.5000000   0.0000000), wk =   0.0555556

     Dense  grid:   583927 G-vectors     FFT dimensions: (  90,  90, 150)

     Smooth grid:   147845 G-vectors     FFT dimensions: (  60,  60,  96)

     Dynamical RAM for                 wfc:       0.93 MB

     Dynamical RAM for     wfc (w. buffer):      10.27 MB

     Dynamical RAM for           str. fact:       0.28 MB

     Dynamical RAM for           local pot:       0.00 MB

     Dynamical RAM for          nlocal pot:       3.52 MB

     Dynamical RAM for                qrad:       2.60 MB

     Dynamical RAM for          rho,v,vnew:       1.76 MB

     Dynamical RAM for               rhoin:       0.59 MB

     Dynamical RAM for            rho*nmix:       4.46 MB

     Dynamical RAM for           G-vectors:       1.08 MB

     Dynamical RAM for          h,s,v(r/c):       0.08 MB

     Dynamical RAM for          <psi|beta>:       0.65 MB

     Dynamical RAM for                 psi:       1.87 MB

     Dynamical RAM for                hpsi:       1.87 MB

     Dynamical RAM for                spsi:       1.87 MB

     Dynamical RAM for      wfcinit/wfcrot:       3.01 MB

     Dynamical RAM for           addusdens:     102.48 MB

     Dynamical RAM for          addusforce:     111.09 MB

     Dynamical RAM for         addusstress:     105.54 MB

     Estimated static dynamical RAM per process >      26.65 MB

     Estimated max dynamical RAM per process >     137.74 MB

     Estimated total dynamical RAM >       4.30 GB

     Check: negative core charge=   -0.000004

     Initial potential from superposition of free atoms

     starting charge  175.99804, renormalised to  176.00000

     negative rho (up, down):  2.645E-05 0.000E+00
     Starting wfcs are  144 randomized atomic wfcs

     total cpu time spent up to now is        2.2 secs

     Self-consistent Calculation

     iteration #  1     ecut=    30.00 Ry     beta= 0.30
     Davidson diagonalization with overlap
     ethr =  1.00E-02,  avg # of iterations =  2.2

     Threshold (ethr) on eigenvalues was too large:
     Diagonalizing with lowered threshold

     Davidson diagonalization with overlap
     ethr =  3.89E-04,  avg # of iterations =  2.0

     negative rho (up, down):  1.632E-05 0.000E+00

     total cpu time spent up to now is        7.7 secs

     total energy              =   -1839.12242285 Ry
     estimated scf accuracy    <       0.78920891 Ry

     iteration #  2     ecut=    30.00 Ry     beta= 0.30
     Davidson diagonalization with overlap
     ethr =  4.48E-04,  avg # of iterations =  2.0

     negative rho (up, down):  2.881E-05 0.000E+00

     total cpu time spent up to now is       10.6 secs

     total energy              =   -1839.17744533 Ry
     estimated scf accuracy    <       0.08570031 Ry

     iteration #  3     ecut=    30.00 Ry     beta= 0.30
     Davidson diagonalization with overlap
     ethr =  4.87E-05,  avg # of iterations =  3.2

     negative rho (up, down):  4.097E-05 0.000E+00

     total cpu time spent up to now is       14.4 secs

     total energy              =   -1839.20088348 Ry
     estimated scf accuracy    <       0.00858599 Ry

     iteration #  4     ecut=    30.00 Ry     beta= 0.30
     Davidson diagonalization with overlap
     ethr =  4.88E-06,  avg # of iterations =  5.4

     negative rho (up, down):  5.876E-05 0.000E+00

     total cpu time spent up to now is       18.1 secs

     total energy              =   -1839.20147204 Ry
     estimated scf accuracy    <       0.00299784 Ry

     iteration #  5     ecut=    30.00 Ry     beta= 0.30
     Davidson diagonalization with overlap
     ethr =  1.70E-06,  avg # of iterations =  2.0

     negative rho (up, down):  6.366E-05 0.000E+00

     total cpu time spent up to now is       20.9 secs

     total energy              =   -1839.20157349 Ry
     estimated scf accuracy    <       0.00024226 Ry

     iteration #  6     ecut=    30.00 Ry     beta= 0.30
     Davidson diagonalization with overlap
     ethr =  1.38E-07,  avg # of iterations =  3.8

     negative rho (up, down):  6.630E-05 0.000E+00

     total cpu time spent up to now is       24.8 secs

     total energy              =   -1839.20166819 Ry
     estimated scf accuracy    <       0.00002034 Ry

     iteration #  7     ecut=    30.00 Ry     beta= 0.30
     Davidson diagonalization with overlap
     ethr =  1.16E-08,  avg # of iterations =  4.6

     negative rho (up, down):  6.880E-05 0.000E+00

     total cpu time spent up to now is       29.1 secs

     total energy              =   -1839.20167157 Ry
     estimated scf accuracy    <       0.00001360 Ry

     iteration #  8     ecut=    30.00 Ry     beta= 0.30
     Davidson diagonalization with overlap
     ethr =  7.73E-09,  avg # of iterations =  2.0

     negative rho (up, down):  7.076E-05 0.000E+00

     total cpu time spent up to now is       32.1 secs

     total energy              =   -1839.20167262 Ry
     estimated scf accuracy    <       0.00000168 Ry

     iteration #  9     ecut=    30.00 Ry     beta= 0.30
     Davidson diagonalization with overlap
     ethr =  9.56E-10,  avg # of iterations =  4.0

     negative rho (up, down):  7.198E-05 0.000E+00

     total cpu time spent up to now is       36.3 secs

     total energy              =   -1839.20167390 Ry
     estimated scf accuracy    <       0.00000115 Ry

     iteration # 10     ecut=    30.00 Ry     beta= 0.30
     Davidson diagonalization with overlap
     ethr =  6.56E-10,  avg # of iterations =  2.1

     negative rho (up, down):  7.505E-05 0.000E+00

     total cpu time spent up to now is       39.0 secs

     End of self-consistent calculation

          k = 0.0000 0.0000 0.0000 ( 18535 PWs)   bands (ev):

    -6.7698  -5.0551  -4.9025  -4.9025  -4.9025  -4.9025  -4.8212  -4.8212
    -4.8212  -4.8212  -4.8088  -4.6651  -4.6651  -4.3457  -4.3457  -3.9733
    -3.9733  -3.9733  -3.9733  -3.8689  -3.7966  -3.7966  -3.7966  -3.7966
    -3.4757  -3.4757  -3.4757  -3.4757  -3.3372  -3.3372  -3.3372  -3.3372
    -2.9343  -2.9343  -2.9343  -2.9343  -2.9156  -2.9156  -2.9156  -2.9156
    -2.8417  -2.8417  -2.8417  -2.8417  -2.7780  -2.7780  -2.7780  -2.7780
    -2.7136  -2.7136  -2.5095  -2.2863  -2.2863  -2.2863  -2.2863  -2.1210
    -2.1210  -2.1209  -2.1209  -2.0502  -2.0502  -2.0371  -2.0371  -2.0371
    -2.0371  -1.7725  -1.6612  -1.6612  -1.4913  -1.4913  -1.4913  -1.4913
    -1.4886  -1.4886  -1.4886  -1.4886  -1.4793  -1.4793  -1.4793  -1.4793
    -1.3282  -1.3282  -1.2520  -1.2234  -0.6898  -0.6898   0.9054   0.9054
     0.9054   0.9054   1.0645   1.0645   1.0645   1.0645   2.1918   3.3355
     3.3356   3.3356   3.3356   4.0119   4.0119   5.1989   5.4581   5.4582
     5.4583   5.4584

     occupation numbers 
     1.0000   1.0000   1.0000   1.0000   1.0000   1.0000   1.0000   1.0000
     1.0000   1.0000   1.0000   1.0000   1.0000   1.0000   1.0000   1.0000
     1.0000   1.0000   1.0000   1.0000   1.0000   1.0000   1.0000   1.0000
     1.0000   1.0000   1.0000   1.0000   1.0000   1.0000   1.0000   1.0000
     1.0000   1.0000   1.0000   1.0000   1.0000   1.0000   1.0000   1.0000
     1.0000   1.0000   1.0000   1.0000   1.0000   1.0000   1.0000   1.0000
     1.0000   1.0000   1.0000   1.0000   1.0000   1.0000   1.0000   1.0000
     1.0000   1.0000   1.0000   1.0000   1.0000   1.0000   1.0000   1.0000
     1.0000   1.0000   1.0000   1.0000   1.0000   1.0000   1.0000   1.0000
     1.0000   1.0000   1.0000   1.0000   1.0000   1.0000   1.0000   1.0000
     1.0000   1.0000   1.0000   1.0000   1.0000   1.0000   0.0000   0.0000
     0.0000   0.0000   0.0000   0.0000   0.0000   0.0000   0.0000   0.0000
     0.0000   0.0000   0.0000   0.0000   0.0000   0.0000   0.0000   0.0000
     0.0000   0.0000

          k = 0.0000 0.1667 0.0000 ( 18461 PWs)   bands (ev):

    -6.6985  -5.2391  -4.9967  -4.9370  -4.9370  -4.8302  -4.8302  -4.8168
    -4.8168  -4.7738  -4.6361  -4.6237  -4.5652  -4.3288  -4.3269  -4.0873
    -4.0698  -4.0698  -3.9956  -3.9212  -3.8990  -3.8355  -3.7720  -3.7720
    -3.6509  -3.5433  -3.5433  -3.3839  -3.3839  -3.3228  -3.3228  -3.0809
    -3.0563  -3.0426  -3.0078  -3.0078  -3.0050  -2.8926  -2.8926  -2.8822
    -2.8822  -2.8484  -2.8484  -2.7571  -2.7571  -2.7542  -2.7369  -2.6481
    -2.6256  -2.5091  -2.4764  -2.4529  -2.1710  -2.1710  -2.1524  -2.0840
    -2.0798  -2.0798  -2.0757  -2.0757  -2.0517  -2.0139  -1.9770  -1.9758
    -1.9758  -1.8355  -1.6794  -1.6686  -1.5818  -1.5765  -1.5765  -1.5741
    -1.5741  -1.4806  -1.4652  -1.4649  -1.4649  -1.3746  -1.3738  -1.3738
    -1.3353  -1.2883  -1.1617  -1.1324  -0.8375  -0.7605   0.1209   0.1209
     0.4496   1.1161   1.1161   1.7855   1.8388   1.8388   2.3322   2.6121
     2.6121   3.1545   4.1648   4.1648   4.2194   4.6584   5.2641   5.4194
     5.4970   5.4972

     occupation numbers 
     1.0000   1.0000   1.0000   1.0000   1.0000   1.0000   1.0000   1.0000
     1.0000   1.0000   1.0000   1.0000   1.0000   1.0000   1.0000   1.0000
     1.0000   1.0000   1.0000   1.0000   1.0000   1.0000   1.0000   1.0000
     1.0000   1.0000   1.0000   1.0000   1.0000   1.0000   1.0000   1.0000
     1.0000   1.0000   1.0000   1.0000   1.0000   1.0000   1.0000   1.0000
     1.0000   1.0000   1.0000   1.0000   1.0000   1.0000   1.0000   1.0000
     1.0000   1.0000   1.0000   1.0000   1.0000   1.0000   1.0000   1.0000
     1.0000   1.0000   1.0000   1.0000   1.0000   1.0000   1.0000   1.0000
     1.0000   1.0000   1.0000   1.0000   1.0000   1.0000   1.0000   1.0000
     1.0000   1.0000   1.0000   1.0000   1.0000   1.0000   1.0000   1.0000
     1.0000   1.0000   1.0000   1.0000   1.0000   1.0000   1.0000   1.0000
     0.0000   0.0000   0.0000   0.0000   0.0000   0.0000   0.0000   0.0000
     0.0000   0.0000   0.0000   0.0000   0.0000   0.0000   0.0000   0.0000
     0.0000   0.0000

          k = 0.0000 0.3333 0.0000 ( 18454 PWs)   bands (ev):

    -6.4882  -5.7161  -4.9294  -4.9294  -4.8571  -4.8571  -4.8261  -4.6777
    -4.6777  -4.6703  -4.5631  -4.5041  -4.4759  -4.2953  -4.2741  -4.2741
    -4.2722  -4.2694  -4.2299  -4.1031  -4.0866  -3.9272  -3.7360  -3.7162
    -3.7162  -3.5963  -3.5963  -3.3515  -3.2691  -3.2691  -3.2671  -3.2671
    -3.0496  -3.0496  -3.0375  -3.0018  -3.0018  -2.9970  -2.9817  -2.9817
    -2.9813  -2.9813  -2.8493  -2.8029  -2.6784  -2.5204  -2.5204  -2.5111
    -2.4828  -2.4286  -2.2360  -2.1872  -2.1711  -2.1458  -2.1458  -2.0626
    -2.0458  -2.0245  -1.9769  -1.9769  -1.9352  -1.9352  -1.8859  -1.8859
    -1.8285  -1.7738  -1.7460  -1.7029  -1.7029  -1.6925  -1.6558  -1.6558
    -1.5954  -1.5135  -1.5135  -1.4691  -1.4266  -1.3972  -1.3887  -1.3560
    -1.2160  -1.2160  -1.2129  -0.9490  -0.8837  -0.5029  -0.5029  -0.4405
    -0.0766   1.2784   1.2784   1.8472   2.0037   2.0038   2.6249   2.7141
     2.9413   2.9414   3.9221   4.5612   4.7734   4.9882   4.9882   5.4731
     5.4732   5.5761

     occupation numbers 
     1.0000   1.0000   1.0000   1.0000   1.0000   1.0000   1.0000   1.0000
     1.0000   1.0000   1.0000   1.0000   1.0000   1.0000   1.0000   1.0000
     1.0000   1.0000   1.0000   1.0000   1.0000   1.0000   1.0000   1.0000
     1.0000   1.0000   1.0000   1.0000   1.0000   1.0000   1.0000   1.0000
     1.0000   1.0000   1.0000   1.0000   1.0000   1.0000   1.0000   1.0000
     1.0000   1.0000   1.0000   1.0000   1.0000   1.0000   1.0000   1.0000
     1.0000   1.0000   1.0000   1.0000   1.0000   1.0000   1.0000   1.0000
     1.0000   1.0000   1.0000   1.0000   1.0000   1.0000   1.0000   1.0000
     1.0000   1.0000   1.0000   1.0000   1.0000   1.0000   1.0000   1.0000
     1.0000   1.0000   1.0000   1.0000   1.0000   1.0000   1.0000   1.0000
     1.0000   1.0000   1.0000   1.0000   1.0000   1.0000   1.0000   1.0000
     1.0000   0.0000   0.0000   0.0000   0.0000   0.0000   0.0000   0.0000
     0.0000   0.0000   0.0000   0.0000   0.0000   0.0000   0.0000   0.0000
     0.0000   0.0000

          k = 0.0000-0.5000 0.0000 ( 18412 PWs)   bands (ev):

    -6.1516  -6.1515  -4.8959  -4.8959  -4.8959  -4.8958  -4.5589  -4.5588
    -4.5051  -4.5050  -4.4917  -4.4917  -4.4910  -4.4910  -4.4910  -4.4910
    -4.3212  -4.3211  -4.1878  -4.1878  -4.1404  -4.1404  -3.6520  -3.6520
    -3.6519  -3.6519  -3.5730  -3.5729  -3.1769  -3.1769  -3.1768  -3.1768
    -3.1027  -3.1027  -3.1027  -3.1027  -3.0445  -3.0445  -3.0445  -3.0445
    -2.9543  -2.9543  -2.8985  -2.8984  -2.5264  -2.5264  -2.3016  -2.3015
    -2.2960  -2.2960  -2.2960  -2.2960  -2.2863  -2.2863  -2.1074  -2.1073
    -1.8760  -1.8759  -1.8449  -1.8449  -1.8449  -1.8449  -1.8072  -1.8071
    -1.8071  -1.8071  -1.7394  -1.7393  -1.6938  -1.6938  -1.6382  -1.6382
    -1.6382  -1.6382  -1.5669  -1.5668  -1.5517  -1.5517  -1.3879  -1.3878
    -1.1901  -1.1900  -0.9486  -0.9486  -0.9486  -0.9486  -0.5230  -0.5230
     0.6084   0.6085   1.5695   1.5695   1.5695   1.5695   3.2634   3.2634
     3.5713   3.5713   4.1527   4.1528   4.1528   4.1528   5.5118   5.5118
     5.5119   5.5121

     occupation numbers 
     1.0000   1.0000   1.0000   1.0000   1.0000   1.0000   1.0000   1.0000
     1.0000   1.0000   1.0000   1.0000   1.0000   1.0000   1.0000   1.0000
     1.0000   1.0000   1.0000   1.0000   1.0000   1.0000   1.0000   1.0000
     1.0000   1.0000   1.0000   1.0000   1.0000   1.0000   1.0000   1.0000
     1.0000   1.0000   1.0000   1.0000   1.0000   1.0000   1.0000   1.0000
     1.0000   1.0000   1.0000   1.0000   1.0000   1.0000   1.0000   1.0000
     1.0000   1.0000   1.0000   1.0000   1.0000   1.0000   1.0000   1.0000
     1.0000   1.0000   1.0000   1.0000   1.0000   1.0000   1.0000   1.0000
     1.0000   1.0000   1.0000   1.0000   1.0000   1.0000   1.0000   1.0000
     1.0000   1.0000   1.0000   1.0000   1.0000   1.0000   1.0000   1.0000
     1.0000   1.0000   1.0000   1.0000   1.0000   1.0000   1.0000   1.0000
     0.0000   0.0000   0.0000   0.0000   0.0000   0.0000   0.0000   0.0000
     0.0000   0.0000   0.0000   0.0000   0.0000   0.0000   0.0000   0.0000
     0.0000   0.0000

          k = 0.1667 0.1667 0.0000 ( 18461 PWs)   bands (ev):

    -6.6295  -5.2318  -5.2318  -5.0484  -4.9575  -4.7976  -4.7889  -4.7888
    -4.7222  -4.5955  -4.5955  -4.5724  -4.5724  -4.3112  -4.3112  -4.2257
    -4.2257  -4.0594  -4.0594  -3.8614  -3.8614  -3.8290  -3.8290  -3.8015
    -3.6312  -3.6312  -3.6183  -3.4384  -3.4384  -3.3128  -3.0908  -3.0908
    -3.0469  -3.0469  -3.0329  -3.0329  -2.9805  -2.9805  -2.9682  -2.9682
    -2.8406  -2.8232  -2.8232  -2.8208  -2.7748  -2.7044  -2.6061  -2.6061
    -2.5096  -2.4584  -2.4584  -2.4015  -2.4015  -2.2494  -2.0859  -2.0859
    -2.0832  -2.0832  -2.0462  -1.9477  -1.9476  -1.9387  -1.9387  -1.9132
    -1.9132  -1.8815  -1.6951  -1.6951  -1.6514  -1.6514  -1.5987  -1.5987
    -1.5919  -1.5046  -1.5046  -1.4811  -1.4037  -1.4037  -1.3776  -1.3125
    -1.2881  -1.0593  -1.0245  -1.0245  -0.9018  -0.9018  -0.6595   0.4881
     0.4881   1.0708   1.0708   1.8180   1.8549   1.8549   2.4637   2.7867
     3.3282   3.3282   3.5051   3.5051   4.7148   4.7148   4.7871   5.3291
     5.7019   6.1265

     occupation numbers 
     1.0000   1.0000   1.0000   1.0000   1.0000   1.0000   1.0000   1.0000
     1.0000   1.0000   1.0000   1.0000   1.0000   1.0000   1.0000   1.0000
     1.0000   1.0000   1.0000   1.0000   1.0000   1.0000   1.0000   1.0000
     1.0000   1.0000   1.0000   1.0000   1.0000   1.0000   1.0000   1.0000
     1.0000   1.0000   1.0000   1.0000   1.0000   1.0000   1.0000   1.0000
     1.0000   1.0000   1.0000   1.0000   1.0000   1.0000   1.0000   1.0000
     1.0000   1.0000   1.0000   1.0000   1.0000   1.0000   1.0000   1.0000
     1.0000   1.0000   1.0000   1.0000   1.0000   1.0000   1.0000   1.0000
     1.0000   1.0000   1.0000   1.0000   1.0000   1.0000   1.0000   1.0000
     1.0000   1.0000   1.0000   1.0000   1.0000   1.0000   1.0000   1.0000
     1.0000   1.0000   1.0000   1.0000   1.0000   1.0000   1.0000   0.0000
     0.0000   0.0000   0.0000   0.0000   0.0000   0.0000   0.0000   0.0000
     0.0000   0.0000   0.0000   0.0000   0.0000   0.0000   0.0000   0.0000
     0.0000   0.0000

          k = 0.1667 0.3333 0.0000 ( 18487 PWs)   bands (ev):

    -6.4264  -5.6860  -5.2110  -5.1259  -4.8458  -4.7283  -4.7242  -4.6081
    -4.6011  -4.5689  -4.5270  -4.4792  -4.4690  -4.4548  -4.4236  -4.2597
    -4.2535  -4.2126  -4.1462  -4.0450  -4.0370  -3.9064  -3.7678  -3.7457
    -3.7004  -3.6665  -3.5631  -3.5124  -3.3452  -3.3182  -3.2244  -3.1596
    -3.1315  -3.1160  -3.0937  -2.9961  -2.9935  -2.9584  -2.9494  -2.8920
    -2.8371  -2.8359  -2.7993  -2.7811  -2.7260  -2.6804  -2.5142  -2.5101
    -2.4655  -2.4221  -2.3448  -2.2714  -2.2521  -2.2399  -2.1660  -2.0919
    -2.0576  -2.0410  -1.9533  -1.9323  -1.9000  -1.8683  -1.8553  -1.8381
    -1.7947  -1.7862  -1.7572  -1.7444  -1.7427  -1.7363  -1.6833  -1.6591
    -1.6406  -1.6018  -1.5552  -1.4241  -1.4105  -1.4069  -1.3632  -1.3261
    -1.2838  -1.2390  -1.1792  -1.0665  -0.8332  -0.6728  -0.2431  -0.0431
     0.3965   0.6143   1.2532   2.0381   2.0636   2.1592   2.7021   2.8261
     2.9264   3.7039   3.8123   3.9948   4.5260   4.7740   4.8694   5.1211
     5.2004   5.5057

     occupation numbers 
     1.0000   1.0000   1.0000   1.0000   1.0000   1.0000   1.0000   1.0000
     1.0000   1.0000   1.0000   1.0000   1.0000   1.0000   1.0000   1.0000
     1.0000   1.0000   1.0000   1.0000   1.0000   1.0000   1.0000   1.0000
     1.0000   1.0000   1.0000   1.0000   1.0000   1.0000   1.0000   1.0000
     1.0000   1.0000   1.0000   1.0000   1.0000   1.0000   1.0000   1.0000
     1.0000   1.0000   1.0000   1.0000   1.0000   1.0000   1.0000   1.0000
     1.0000   1.0000   1.0000   1.0000   1.0000   1.0000   1.0000   1.0000
     1.0000   1.0000   1.0000   1.0000   1.0000   1.0000   1.0000   1.0000
     1.0000   1.0000   1.0000   1.0000   1.0000   1.0000   1.0000   1.0000
     1.0000   1.0000   1.0000   1.0000   1.0000   1.0000   1.0000   1.0000
     1.0000   1.0000   1.0000   1.0000   1.0000   1.0000   1.0000   1.0000
     0.0036   0.0000   0.0000   0.0000   0.0000   0.0000   0.0000   0.0000
     0.0000   0.0000   0.0000   0.0000   0.0000   0.0000   0.0000   0.0000
     0.0000   0.0000

          k = 0.1667-0.5000 0.0000 ( 18476 PWs)   bands (ev):

    -6.1026  -6.1025  -5.1773  -5.1773  -4.6731  -4.6731  -4.6575  -4.6574
    -4.5970  -4.5969  -4.4682  -4.4682  -4.4079  -4.4078  -4.3275  -4.3275
    -4.3081  -4.3080  -4.1754  -4.1753  -4.1223  -4.1222  -3.7011  -3.7011
    -3.6375  -3.6375  -3.5356  -3.5355  -3.4420  -3.4420  -3.1384  -3.1384
    -3.1099  -3.1099  -3.0643  -3.0643  -3.0496  -3.0496  -2.9139  -2.9139
    -2.8737  -2.8737  -2.7960  -2.7960  -2.6034  -2.6034  -2.5346  -2.5345
    -2.2978  -2.2978  -2.2875  -2.2874  -2.1577  -2.1576  -2.0776  -2.0775
    -2.0614  -2.0614  -2.0082  -2.0081  -1.8365  -1.8364  -1.8077  -1.8076
    -1.7674  -1.7673  -1.7616  -1.7616  -1.7184  -1.7183  -1.6680  -1.6680
    -1.6212  -1.6211  -1.6039  -1.6039  -1.5637  -1.5636  -1.3158  -1.3158
    -1.2722  -1.2722  -1.2592  -1.2591  -0.4857  -0.4856  -0.1863  -0.1863
     0.8136   0.8137   0.8574   0.8575   2.4049   2.4049   3.3544   3.3545
     3.4346   3.4346   3.5495   3.5495   4.9315   4.9316   4.9673   4.9673
     5.0623   5.0624

     occupation numbers 
     1.0000   1.0000   1.0000   1.0000   1.0000   1.0000   1.0000   1.0000
     1.0000   1.0000   1.0000   1.0000   1.0000   1.0000   1.0000   1.0000
     1.0000   1.0000   1.0000   1.0000   1.0000   1.0000   1.0000   1.0000
     1.0000   1.0000   1.0000   1.0000   1.0000   1.0000   1.0000   1.0000
     1.0000   1.0000   1.0000   1.0000   1.0000   1.0000   1.0000   1.0000
     1.0000   1.0000   1.0000   1.0000   1.0000   1.0000   1.0000   1.0000
     1.0000   1.0000   1.0000   1.0000   1.0000   1.0000   1.0000   1.0000
     1.0000   1.0000   1.0000   1.0000   1.0000   1.0000   1.0000   1.0000
     1.0000   1.0000   1.0000   1.0000   1.0000   1.0000   1.0000   1.0000
     1.0000   1.0000   1.0000   1.0000   1.0000   1.0000   1.0000   1.0000
     1.0000   1.0000   1.0000   1.0000   1.0000   1.0000   1.0000   1.0000
     0.0000   0.0000   0.0000   0.0000   0.0000   0.0000   0.0000   0.0000
     0.0000   0.0000   0.0000   0.0000   0.0000   0.0000   0.0000   0.0000
     0.0000   0.0000

          k = 0.3333 0.3333 0.0000 ( 18492 PWs)   bands (ev):

    -6.2456  -5.6003  -5.6003  -5.3087  -4.8275  -4.7320  -4.5985  -4.5985
    -4.5361  -4.5360  -4.4628  -4.4628  -4.4298  -4.4298  -4.3517  -4.2354
    -4.2354  -4.2021  -4.2021  -3.9270  -3.9270  -3.8541  -3.8541  -3.8350
    -3.8350  -3.7074  -3.5948  -3.5504  -3.5504  -3.2329  -3.2329  -3.1724
    -3.1239  -3.1239  -3.1118  -3.1118  -3.0829  -2.7872  -2.7872  -2.7512
    -2.7360  -2.7360  -2.7168  -2.6880  -2.6781  -2.6781  -2.6147  -2.6067
    -2.6067  -2.5266  -2.4158  -2.4158  -2.2662  -2.1860  -2.1860  -2.1765
    -2.1765  -2.1175  -1.9037  -1.9036  -1.8806  -1.8806  -1.8696  -1.8696
    -1.8111  -1.8111  -1.7717  -1.7508  -1.7508  -1.7141  -1.7141  -1.6875
    -1.6622  -1.6622  -1.6430  -1.4624  -1.4624  -1.4572  -1.3011  -1.3011
    -1.2929  -1.2929  -1.2884  -1.2409  -0.6621   0.0706   0.0706   0.2174
     0.2174   0.6858   1.4492   1.4492   2.5027   2.5027   2.8859   2.8859
     3.1416   3.9984   3.9984   4.2001   4.2001   4.2036   4.2036   4.7864
     4.8767   5.6038

     occupation numbers 
     1.0000   1.0000   1.0000   1.0000   1.0000   1.0000   1.0000   1.0000
     1.0000   1.0000   1.0000   1.0000   1.0000   1.0000   1.0000   1.0000
     1.0000   1.0000   1.0000   1.0000   1.0000   1.0000   1.0000   1.0000
     1.0000   1.0000   1.0000   1.0000   1.0000   1.0000   1.0000   1.0000
     1.0000   1.0000   1.0000   1.0000   1.0000   1.0000   1.0000   1.0000
     1.0000   1.0000   1.0000   1.0000   1.0000   1.0000   1.0000   1.0000
     1.0000   1.0000   1.0000   1.0000   1.0000   1.0000   1.0000   1.0000
     1.0000   1.0000   1.0000   1.0000   1.0000   1.0000   1.0000   1.0000
     1.0000   1.0000   1.0000   1.0000   1.0000   1.0000   1.0000   1.0000
     1.0000   1.0000   1.0000   1.0000   1.0000   1.0000   1.0000   1.0000
     1.0000   1.0000   1.0000   1.0000   1.0000   1.0000   1.0000   0.9998
     0.9998   0.0000   0.0000   0.0000   0.0000   0.0000   0.0000   0.0000
     0.0000   0.0000   0.0000   0.0000   0.0000   0.0000   0.0000   0.0000
     0.0000   0.0000

          k = 0.3333-0.5000 0.0000 ( 18480 PWs)   bands (ev):

    -5.9607  -5.9606  -5.4703  -5.4702  -4.7421  -4.7421  -4.6914  -4.6913
    -4.4830  -4.4830  -4.4148  -4.4148  -4.3678  -4.3678  -4.3142  -4.3141
    -4.0961  -4.0960  -4.0853  -4.0853  -4.0580  -4.0579  -3.7596  -3.7595
    -3.7485  -3.7484  -3.7047  -3.7046  -3.4273  -3.4272  -3.1617  -3.1617
    -3.1610  -3.1610  -2.9806  -2.9806  -2.9562  -2.9562  -2.8932  -2.8932
    -2.7334  -2.7333  -2.7137  -2.7137  -2.6242  -2.6241  -2.5543  -2.5543
    -2.4081  -2.4081  -2.3695  -2.3694  -2.3493  -2.3493  -2.3022  -2.3022
    -2.0830  -2.0830  -2.0319  -2.0318  -1.9313  -1.9312  -1.8813  -1.8813
    -1.8549  -1.8549  -1.8362  -1.8362  -1.6723  -1.6723  -1.6662  -1.6662
    -1.5651  -1.5650  -1.5457  -1.5457  -1.5249  -1.5249  -1.3776  -1.3776
    -1.2675  -1.2675  -1.2513  -1.2512  -0.3572  -0.3571   0.2997   0.2998
     0.7987   0.7988   1.3024   1.3025   2.5495   2.5496   3.0192   3.0192
     3.6091   3.6092   3.6158   3.6159   4.4844   4.4844   4.5187   4.5187
     5.1895   5.1895

     occupation numbers 
     1.0000   1.0000   1.0000   1.0000   1.0000   1.0000   1.0000   1.0000
     1.0000   1.0000   1.0000   1.0000   1.0000   1.0000   1.0000   1.0000
     1.0000   1.0000   1.0000   1.0000   1.0000   1.0000   1.0000   1.0000
     1.0000   1.0000   1.0000   1.0000   1.0000   1.0000   1.0000   1.0000
     1.0000   1.0000   1.0000   1.0000   1.0000   1.0000   1.0000   1.0000
     1.0000   1.0000   1.0000   1.0000   1.0000   1.0000   1.0000   1.0000
     1.0000   1.0000   1.0000   1.0000   1.0000   1.0000   1.0000   1.0000
     1.0000   1.0000   1.0000   1.0000   1.0000   1.0000   1.0000   1.0000
     1.0000   1.0000   1.0000   1.0000   1.0000   1.0000   1.0000   1.0000
     1.0000   1.0000   1.0000   1.0000   1.0000   1.0000   1.0000   1.0000
     1.0000   1.0000   1.0000   1.0000   1.0000   1.0000   0.7469   0.7463
     0.0000   0.0000   0.0000   0.0000   0.0000   0.0000   0.0000   0.0000
     0.0000   0.0000   0.0000   0.0000   0.0000   0.0000   0.0000   0.0000
     0.0000   0.0000

          k =-0.5000-0.5000 0.0000 ( 18528 PWs)   bands (ev):

    -5.7417  -5.7417  -5.7417  -5.7416  -4.7455  -4.7455  -4.7455  -4.7454
    -4.3724  -4.3724  -4.3724  -4.3724  -4.3724  -4.3724  -4.3723  -4.3723
    -3.9304  -3.9303  -3.9303  -3.9303  -3.9303  -3.9303  -3.9302  -3.9302
    -3.8643  -3.8642  -3.8642  -3.8642  -3.2747  -3.2747  -3.2747  -3.2746
    -3.1536  -3.1535  -3.1535  -3.1535  -2.6959  -2.6959  -2.6959  -2.6958
    -2.6600  -2.6600  -2.6600  -2.6600  -2.6600  -2.6600  -2.6600  -2.6599
    -2.5535  -2.5534  -2.5534  -2.5534  -2.3819  -2.3819  -2.3819  -2.3818
    -2.0024  -2.0024  -2.0024  -2.0024  -2.0023  -2.0023  -2.0023  -2.0023
    -1.9133  -1.9133  -1.9133  -1.9133  -1.5955  -1.5955  -1.5955  -1.5954
    -1.5079  -1.5079  -1.5079  -1.5079  -1.5079  -1.5079  -1.5079  -1.5079
    -1.2395  -1.2395  -1.2395  -1.2395  -0.1031  -0.1030  -0.1030  -0.1030
     1.9151   1.9151   1.9151   1.9151   1.9151   1.9151   1.9152   1.9152
     4.0173   4.0174   4.0174   4.0174   4.7482   4.7482   4.7483   4.7483
     4.7483   4.7483

     occupation numbers 
     1.0000   1.0000   1.0000   1.0000   1.0000   1.0000   1.0000   1.0000
     1.0000   1.0000   1.0000   1.0000   1.0000   1.0000   1.0000   1.0000
     1.0000   1.0000   1.0000   1.0000   1.0000   1.0000   1.0000   1.0000
     1.0000   1.0000   1.0000   1.0000   1.0000   1.0000   1.0000   1.0000
     1.0000   1.0000   1.0000   1.0000   1.0000   1.0000   1.0000   1.0000
     1.0000   1.0000   1.0000   1.0000   1.0000   1.0000   1.0000   1.0000
     1.0000   1.0000   1.0000   1.0000   1.0000   1.0000   1.0000   1.0000
     1.0000   1.0000   1.0000   1.0000   1.0000   1.0000   1.0000   1.0000
     1.0000   1.0000   1.0000   1.0000   1.0000   1.0000   1.0000   1.0000
     1.0000   1.0000   1.0000   1.0000   1.0000   1.0000   1.0000   1.0000
     1.0000   1.0000   1.0000   1.0000   1.0000   1.0000   1.0000   1.0000
     0.0000   0.0000   0.0000   0.0000   0.0000   0.0000   0.0000   0.0000
     0.0000   0.0000   0.0000   0.0000   0.0000   0.0000   0.0000   0.0000
     0.0000   0.0000

     the Fermi energy is     0.3189 ev

!    total energy              =   -1839.20167319 Ry
     estimated scf accuracy    <       0.00000100 Ry
     smearing contrib. (-TS)   =      -0.00031267 Ry
     internal energy E=F+TS    =   -1839.20136052 Ry

     The total energy is F=E-TS. E is the sum of the following terms:
     one-electron contribution =   -3564.53851005 Ry
     hartree contribution      =    1909.81382641 Ry
     xc contribution           =    -994.37210140 Ry
     ewald contribution        =     809.89542452 Ry

     convergence has been achieved in  10 iterations

     negative rho (up, down):  7.505E-05 0.000E+00

     Forces acting on atoms (cartesian axes, Ry/au):

     atom    1 type  1   force =     0.00000000    0.00000000    0.00944384
     atom    2 type  1   force =     0.00000000    0.00000443   -0.00941474
     atom    3 type  1   force =     0.00000443    0.00000000   -0.00941474
     atom    4 type  1   force =     0.00000598    0.00000598    0.00938162
     atom    5 type  1   force =     0.00000000    0.00000000    0.00945869
     atom    6 type  1   force =     0.00000000   -0.00000443   -0.00941474
     atom    7 type  1   force =     0.00000574    0.00000000   -0.00942703
     atom    8 type  1   force =     0.00000598   -0.00000598    0.00938162
     atom    9 type  1   force =     0.00000000    0.00000000    0.00945869
     atom   10 type  1   force =     0.00000000    0.00000574   -0.00942703
     atom   11 type  1   force =    -0.00000443    0.00000000   -0.00941474
     atom   12 type  1   force =    -0.00000598    0.00000598    0.00938162
     atom   13 type  1   force =     0.00000000    0.00000000    0.00947940
     atom   14 type  1   force =     0.00000000   -0.00000574   -0.00942703
     atom   15 type  1   force =    -0.00000574    0.00000000   -0.00942703
     atom   16 type  1   force =    -0.00000598   -0.00000598    0.00938162
     The non-local contrib.  to forces
     atom    1 type  1   force =     0.00000000    0.00000000    0.01960838
     atom    2 type  1   force =    -0.00000000    0.00000714   -0.01961222
     atom    3 type  1   force =     0.00000714    0.00000000   -0.01961222
     atom    4 type  1   force =     0.00000845    0.00000845    0.01962707
     atom    5 type  1   force =     0.00000000    0.00000000    0.01962336
     atom    6 type  1   force =     0.00000000   -0.00000714   -0.01961222
     atom    7 type  1   force =     0.00000904    0.00000000   -0.01962928
     atom    8 type  1   force =     0.00000845   -0.00000845    0.01962707
     atom    9 type  1   force =     0.00000000    0.00000000    0.01962336
     atom   10 type  1   force =    -0.00000000    0.00000904   -0.01962928
     atom   11 type  1   force =    -0.00000714   -0.00000000   -0.01961222
     atom   12 type  1   force =    -0.00000845    0.00000845    0.01962707
     atom   13 type  1   force =     0.00000000    0.00000000    0.01964813
     atom   14 type  1   force =     0.00000000   -0.00000904   -0.01962928
     atom   15 type  1   force =    -0.00000904   -0.00000000   -0.01962928
     atom   16 type  1   force =    -0.00000845   -0.00000845    0.01962707
     The ionic contribution  to forces
     atom    1 type  1   force =    -0.00003826   -0.00003826  -32.60809070
     atom    2 type  1   force =    -0.00003826   -0.00001489   32.60810726
     atom    3 type  1   force =    -0.00001489   -0.00003826   32.60810726
     atom    4 type  1   force =    -0.00001489   -0.00001489  -32.60812381
     atom    5 type  1   force =    -0.00003826    0.00001489  -32.60810726
     atom    6 type  1   force =    -0.00003826    0.00003826   32.60809070
     atom    7 type  1   force =    -0.00001489    0.00001489   32.60812381
     atom    8 type  1   force =    -0.00001489    0.00003826  -32.60810726
     atom    9 type  1   force =     0.00001489   -0.00003826  -32.60810726
     atom   10 type  1   force =     0.00001489   -0.00001489   32.60812381
     atom   11 type  1   force =     0.00003826   -0.00003826   32.60809070
     atom   12 type  1   force =     0.00003826   -0.00001489  -32.60810726
     atom   13 type  1   force =     0.00001489    0.00001489  -32.60812381
     atom   14 type  1   force =     0.00001489    0.00003826   32.60810726
     atom   15 type  1   force =     0.00003826    0.00001489   32.60810726
     atom   16 type  1   force =     0.00003826    0.00003826  -32.60809070
     The local contribution  to forces
     atom    1 type  1   force =    -0.00000000   -0.00000000   32.57211242
     atom    2 type  1   force =    -0.00000000    0.00006684  -32.57218170
     atom    3 type  1   force =     0.00006684   -0.00000000  -32.57218170
     atom    4 type  1   force =     0.00005260    0.00005260   32.57211245
     atom    5 type  1   force =    -0.00000000    0.00005005   32.57211985
     atom    6 type  1   force =    -0.00000000    0.00003326  -32.57218170
     atom    7 type  1   force =     0.00004583    0.00005005  -32.57217977
     atom    8 type  1   force =     0.00005260    0.00004750   32.57211245
     atom    9 type  1   force =     0.00005005   -0.00000000   32.57211985
     atom   10 type  1   force =     0.00005005    0.00004583  -32.57217977
     atom   11 type  1   force =     0.00003326   -0.00000000  -32.57218170
     atom   12 type  1   force =     0.00004750    0.00005260   32.57211245
     atom   13 type  1   force =     0.00005005    0.00005005   32.57210829
     atom   14 type  1   force =     0.00005005    0.00005427  -32.57217977
     atom   15 type  1   force =     0.00005427    0.00005005  -32.57217977
     atom   16 type  1   force =     0.00004750    0.00004750   32.57211245
     The core correction contribution to forces
     atom    1 type  1   force =     0.00000001    0.00000001    0.02655849
     atom    2 type  1   force =     0.00000000    0.00001237   -0.02651575
     atom    3 type  1   force =     0.00001237    0.00000000   -0.02651575
     atom    4 type  1   force =     0.00001148    0.00001148    0.02647686
     atom    5 type  1   force =     0.00000000    0.00001504    0.02655639
     atom    6 type  1   force =    -0.00000000    0.00001773   -0.02651574
     atom    7 type  1   force =     0.00001140    0.00001504   -0.02651438
     atom    8 type  1   force =     0.00001148    0.00001863    0.02647686
     atom    9 type  1   force =     0.00001504    0.00000000    0.02655639
     atom   10 type  1   force =     0.00001504    0.00001140   -0.02651438
     atom   11 type  1   force =     0.00001773   -0.00000000   -0.02651574
     atom   12 type  1   force =     0.00001863    0.00001148    0.02647686
     atom   13 type  1   force =     0.00001504    0.00001504    0.02655342
     atom   14 type  1   force =     0.00001504    0.00001871   -0.02651439
     atom   15 type  1   force =     0.00001871    0.00001504   -0.02651439
     atom   16 type  1   force =     0.00001863    0.00001863    0.02647686
     The Hubbard contrib.    to forces
     atom    1 type  1   force =     0.00000000    0.00000000    0.00000000
     atom    2 type  1   force =     0.00000000    0.00000000    0.00000000
     atom    3 type  1   force =     0.00000000    0.00000000    0.00000000
     atom    4 type  1   force =     0.00000000    0.00000000    0.00000000
     atom    5 type  1   force =     0.00000000    0.00000000    0.00000000
     atom    6 type  1   force =     0.00000000    0.00000000    0.00000000
     atom    7 type  1   force =     0.00000000    0.00000000    0.00000000
     atom    8 type  1   force =     0.00000000    0.00000000    0.00000000
     atom    9 type  1   force =     0.00000000    0.00000000    0.00000000
     atom   10 type  1   force =     0.00000000    0.00000000    0.00000000
     atom   11 type  1   force =     0.00000000    0.00000000    0.00000000
     atom   12 type  1   force =     0.00000000    0.00000000    0.00000000
     atom   13 type  1   force =     0.00000000    0.00000000    0.00000000
     atom   14 type  1   force =     0.00000000    0.00000000    0.00000000
     atom   15 type  1   force =     0.00000000    0.00000000    0.00000000
     atom   16 type  1   force =     0.00000000    0.00000000    0.00000000
     The SCF correction term to forces
     atom    1 type  1   force =    -0.00000001   -0.00000001   -0.00073201
     atom    2 type  1   force =    -0.00000001    0.00000977    0.00080870
     atom    3 type  1   force =     0.00000977   -0.00000001    0.00080870
     atom    4 type  1   force =     0.00002515    0.00002515   -0.00071477
     atom    5 type  1   force =    -0.00000001    0.00000002   -0.00072091
     atom    6 type  1   force =    -0.00000001   -0.00000974    0.00080869
     atom    7 type  1   force =     0.00003117    0.00000002    0.00079362
     atom    8 type  1   force =     0.00002515   -0.00002511   -0.00071476
     atom    9 type  1   force =     0.00000002   -0.00000001   -0.00072091
     atom   10 type  1   force =     0.00000002    0.00003117    0.00079362
     atom   11 type  1   force =    -0.00000974   -0.00000001    0.00080869
     atom   12 type  1   force =    -0.00002511    0.00002515   -0.00071476
     atom   13 type  1   force =     0.00000002    0.00000002   -0.00069388
     atom   14 type  1   force =     0.00000002   -0.00003113    0.00079362
     atom   15 type  1   force =    -0.00003113    0.00000002    0.00079362
     atom   16 type  1   force =    -0.00002511   -0.00002511   -0.00071476

     Total force =     0.037684     Total SCF correction =     0.003041


     Computing stress (Cartesian axis) and pressure


     negative rho (up, down):  7.505E-05 0.000E+00
          total   stress  (Ry/bohr**3)                   (kbar)     P=      -29.44
  -0.00027357   0.00000000   0.00000000          -40.24        0.00        0.00
   0.00000000  -0.00027357   0.00000000            0.00      -40.24        0.00
   0.00000000   0.00000000  -0.00005319            0.00        0.00       -7.82

     kinetic stress (kbar)   5913.26      0.00      0.00
                                0.00   5913.26      0.00
                                0.00      0.00   6000.24

     local   stress (kbar) -73180.70     -0.00      0.00
                               -0.00 -73180.70      0.00
                                0.00      0.00  86801.58

     nonloc. stress (kbar)  -3792.94      0.00      0.00
                                0.00  -3792.94      0.00
                                0.00      0.00  -3796.48

     hartree stress (kbar)  39673.68     -0.00     -0.00
                               -0.00  39673.68      0.00
                               -0.00      0.00 -37137.69

     exc-cor stress (kbar)  15342.97      0.00     -0.00
                                0.00  15342.97     -0.00
                               -0.00     -0.00  15336.66

     corecor stress (kbar) -17698.66     -0.00      0.00
                               -0.00 -17698.66      0.00
                                0.00      0.00 -17707.69

     ewald   stress (kbar)  33702.15     -0.00     -0.00
                               -0.00  33702.15     -0.00
                               -0.00     -0.00 -49504.44

     hubbard stress (kbar)      0.00      0.00      0.00
                                0.00      0.00      0.00
                                0.00      0.00      0.00

     DFT-D   stress (kbar)      0.00      0.00      0.00
                                0.00      0.00      0.00
                                0.00      0.00      0.00

     XDM     stress (kbar)      0.00      0.00      0.00
                                0.00      0.00      0.00
                                0.00      0.00      0.00

     dft-nl  stress (kbar)      0.00      0.00      0.00
                                0.00      0.00      0.00
                                0.00      0.00      0.00

     TS-vdW  stress (kbar)      0.00      0.00      0.00
                                0.00      0.00      0.00
                                0.00      0.00      0.00



     BFGS Geometry Optimization
     Energy error            =      0.0E+00
     Gradient error          =      9.5E-03

     number of scf cycles    =   1
     number of bfgs steps    =   0

     energy   new            =   -1839.2016731859 Ry

     new trust radius        =       0.0094794035 bohr
     new conv_thr            =       0.0000010000 Ry


ATOMIC_POSITIONS (angstrom)
Au            0.0000000000        0.0000000000        0.0049974640
Au            0.0000000000        2.0856463444        2.0806619326
Au            2.0856463444        0.0000000000        2.0806619326
Au            2.0856471650        2.0856471650        0.0049645373
Au            0.0000000000        4.1712880000        0.0050053247
Au            0.0000000000        6.2569296556        2.0806619326
Au            2.0856470375        4.1712880000        2.0806554307
Au            2.0856471650        6.2569288350        0.0049645373
Au            4.1712880000        0.0000000000        0.0050053247
Au            4.1712880000        2.0856470375        2.0806554307
Au            6.2569296556        0.0000000000        2.0806619326
Au            6.2569288350        2.0856471650        0.0049645373
Au            4.1712880000        4.1712880000        0.0050162843
Au            4.1712880000        6.2569289625        2.0806554307
Au            6.2569289625        4.1712880000        2.0806554307
Au            6.2569288350        6.2569288350        0.0049645373



     Writing output data file ./surface.save/
     NEW-OLD atomic charge density approx. for the potential

     Check: negative core charge=   -0.000004

     negative rho (up, down):  7.527E-05 0.000E+00

     total cpu time spent up to now is       45.7 secs

     Self-consistent Calculation

     iteration #  1     ecut=    30.00 Ry     beta= 0.30
     Davidson diagonalization with overlap
     ethr =  1.00E-06,  avg # of iterations =  6.9

     Threshold (ethr) on eigenvalues was too large:
     Diagonalizing with lowered threshold

     Davidson diagonalization with overlap
     ethr =  1.31E-08,  avg # of iterations =  7.8

     negative rho (up, down):  7.534E-05 0.000E+00

     total cpu time spent up to now is       58.7 secs

     total energy              =   -1839.20302898 Ry
     estimated scf accuracy    <       0.00002976 Ry

     iteration #  2     ecut=    30.00 Ry     beta= 0.30
     Davidson diagonalization with overlap
     ethr =  1.69E-08,  avg # of iterations =  2.0

     negative rho (up, down):  7.549E-05 0.000E+00

     total cpu time spent up to now is       62.0 secs

     total energy              =   -1839.20303474 Ry
     estimated scf accuracy    <       0.00000294 Ry

     iteration #  3     ecut=    30.00 Ry     beta= 0.30
     Davidson diagonalization with overlap
     ethr =  1.67E-09,  avg # of iterations =  2.0

     negative rho (up, down):  7.556E-05 0.000E+00

     total cpu time spent up to now is       64.8 secs

     total energy              =   -1839.20303499 Ry
     estimated scf accuracy    <       0.00000131 Ry

     iteration #  4     ecut=    30.00 Ry     beta= 0.30
     Davidson diagonalization with overlap
     ethr =  7.44E-10,  avg # of iterations =  2.0

     negative rho (up, down):  7.587E-05 0.000E+00

     total cpu time spent up to now is       67.8 secs

     End of self-consistent calculation

          k = 0.0000 0.0000 0.0000 ( 18535 PWs)   bands (ev):

    -6.7921  -5.0682  -4.9245  -4.9244  -4.9242  -4.9242  -4.8435  -4.8435
    -4.8434  -4.8434  -4.8275  -4.6842  -4.6835  -4.3687  -4.3687  -3.9984
    -3.9984  -3.9984  -3.9984  -3.8674  -3.8140  -3.8140  -3.8140  -3.8140
    -3.4773  -3.4773  -3.4769  -3.4769  -3.3568  -3.3568  -3.3568  -3.3568
    -2.9447  -2.9447  -2.9446  -2.9446  -2.9326  -2.9326  -2.9325  -2.9325
    -2.8624  -2.8623  -2.8619  -2.8619  -2.7828  -2.7828  -2.7828  -2.7828
    -2.7329  -2.7329  -2.5014  -2.2867  -2.2867  -2.2867  -2.2867  -2.1189
    -2.1189  -2.1189  -2.1189  -2.0479  -2.0479  -2.0459  -2.0458  -2.0457
    -2.0457  -1.7884  -1.6608  -1.6601  -1.4862  -1.4862  -1.4858  -1.4858
    -1.4851  -1.4851  -1.4851  -1.4851  -1.4777  -1.4777  -1.4777  -1.4777
    -1.3279  -1.3279  -1.2533  -1.2196  -0.6980  -0.6969   0.8971   0.8972
     0.8973   0.8973   1.0806   1.0806   1.0806   1.0806   2.2026   3.3417
     3.3418   3.3423   3.3423   4.0006   4.0006   5.1998   5.4661   5.4661
     5.4664   5.4664

     occupation numbers 
     1.0000   1.0000   1.0000   1.0000   1.0000   1.0000   1.0000   1.0000
     1.0000   1.0000   1.0000   1.0000   1.0000   1.0000   1.0000   1.0000
     1.0000   1.0000   1.0000   1.0000   1.0000   1.0000   1.0000   1.0000
     1.0000   1.0000   1.0000   1.0000   1.0000   1.0000   1.0000   1.0000
     1.0000   1.0000   1.0000   1.0000   1.0000   1.0000   1.0000   1.0000
     1.0000   1.0000   1.0000   1.0000   1.0000   1.0000   1.0000   1.0000
     1.0000   1.0000   1.0000   1.0000   1.0000   1.0000   1.0000   1.0000
     1.0000   1.0000   1.0000   1.0000   1.0000   1.0000   1.0000   1.0000
     1.0000   1.0000   1.0000   1.0000   1.0000   1.0000   1.0000   1.0000
     1.0000   1.0000   1.0000   1.0000   1.0000   1.0000   1.0000   1.0000
     1.0000   1.0000   1.0000   1.0000   1.0000   1.0000   0.0000   0.0000
     0.0000   0.0000   0.0000   0.0000   0.0000   0.0000   0.0000   0.0000
     0.0000   0.0000   0.0000   0.0000   0.0000   0.0000   0.0000   0.0000
     0.0000   0.0000

          k = 0.0000 0.1667 0.0000 ( 18461 PWs)   bands (ev):

    -6.7208  -5.2620  -5.0100  -4.9587  -4.9587  -4.8524  -4.8523  -4.8388
    -4.8388  -4.7925  -4.6548  -4.6424  -4.5859  -4.3517  -4.3500  -4.1103
    -4.0941  -4.0941  -4.0207  -3.9374  -3.9173  -3.8342  -3.7889  -3.7888
    -3.6717  -3.5469  -3.5469  -3.3840  -3.3840  -3.3424  -3.3424  -3.0838
    -3.0743  -3.0557  -3.0226  -3.0217  -3.0217  -2.9128  -2.9127  -2.9021
    -2.9020  -2.8510  -2.8510  -2.7731  -2.7708  -2.7708  -2.7560  -2.6611
    -2.6352  -2.5011  -2.4827  -2.4515  -2.1732  -2.1732  -2.1513  -2.0861
    -2.0861  -2.0817  -2.0781  -2.0781  -2.0499  -2.0156  -1.9831  -1.9831
    -1.9759  -1.8514  -1.6796  -1.6679  -1.5809  -1.5741  -1.5741  -1.5718
    -1.5718  -1.4735  -1.4621  -1.4621  -1.4604  -1.3747  -1.3695  -1.3695
    -1.3348  -1.2895  -1.1614  -1.1286  -0.8455  -0.7671   0.1136   0.1136
     0.4625   1.1318   1.1318   1.8036   1.8305   1.8306   2.3429   2.6204
     2.6204   3.1457   4.1693   4.1694   4.2085   4.6671   5.2650   5.4239
     5.5047   5.5050

     occupation numbers 
     1.0000   1.0000   1.0000   1.0000   1.0000   1.0000   1.0000   1.0000
     1.0000   1.0000   1.0000   1.0000   1.0000   1.0000   1.0000   1.0000
     1.0000   1.0000   1.0000   1.0000   1.0000   1.0000   1.0000   1.0000
     1.0000   1.0000   1.0000   1.0000   1.0000   1.0000   1.0000   1.0000
     1.0000   1.0000   1.0000   1.0000   1.0000   1.0000   1.0000   1.0000
     1.0000   1.0000   1.0000   1.0000   1.0000   1.0000   1.0000   1.0000
     1.0000   1.0000   1.0000   1.0000   1.0000   1.0000   1.0000   1.0000
     1.0000   1.0000   1.0000   1.0000   1.0000   1.0000   1.0000   1.0000
     1.0000   1.0000   1.0000   1.0000   1.0000   1.0000   1.0000   1.0000
     1.0000   1.0000   1.0000   1.0000   1.0000   1.0000   1.0000   1.0000
     1.0000   1.0000   1.0000   1.0000   1.0000   1.0000   1.0000   1.0000
     0.0000   0.0000   0.0000   0.0000   0.0000   0.0000   0.0000   0.0000
     0.0000   0.0000   0.0000   0.0000   0.0000   0.0000   0.0000   0.0000
     0.0000   0.0000

          k = 0.0000 0.3333 0.0000 ( 18454 PWs)   bands (ev):

    -6.5107  -5.7390  -4.9512  -4.9511  -4.8792  -4.8792  -4.8398  -4.7000
    -4.7000  -4.6893  -4.5817  -4.5228  -4.4953  -4.3161  -4.2974  -4.2974
    -4.2955  -4.2920  -4.2452  -4.1217  -4.1109  -3.9486  -3.7352  -3.7311
    -3.7310  -3.6033  -3.6033  -3.3528  -3.2867  -3.2867  -3.2691  -3.2691
    -3.0643  -3.0642  -3.0553  -3.0205  -3.0205  -3.0130  -3.0006  -3.0005
    -2.9815  -2.9815  -2.8675  -2.8215  -2.6904  -2.5341  -2.5341  -2.5034
    -2.4835  -2.4340  -2.2419  -2.1967  -2.1692  -2.1580  -2.1580  -2.0624
    -2.0489  -2.0404  -1.9755  -1.9755  -1.9388  -1.9388  -1.8917  -1.8917
    -1.8292  -1.7737  -1.7484  -1.7008  -1.7008  -1.6920  -1.6553  -1.6553
    -1.5958  -1.5114  -1.5114  -1.4700  -1.4233  -1.3982  -1.3831  -1.3549
    -1.2215  -1.2131  -1.2130  -0.9527  -0.8792  -0.5080  -0.5079  -0.4438
    -0.0671   1.2930   1.2931   1.8398   2.0145   2.0145   2.6433   2.7247
     2.9329   2.9330   3.9316   4.5733   4.7635   4.9911   4.9911   5.4664
     5.4665   5.5825

     occupation numbers 
     1.0000   1.0000   1.0000   1.0000   1.0000   1.0000   1.0000   1.0000
     1.0000   1.0000   1.0000   1.0000   1.0000   1.0000   1.0000   1.0000
     1.0000   1.0000   1.0000   1.0000   1.0000   1.0000   1.0000   1.0000
     1.0000   1.0000   1.0000   1.0000   1.0000   1.0000   1.0000   1.0000
     1.0000   1.0000   1.0000   1.0000   1.0000   1.0000   1.0000   1.0000
     1.0000   1.0000   1.0000   1.0000   1.0000   1.0000   1.0000   1.0000
     1.0000   1.0000   1.0000   1.0000   1.0000   1.0000   1.0000   1.0000
     1.0000   1.0000   1.0000   1.0000   1.0000   1.0000   1.0000   1.0000
     1.0000   1.0000   1.0000   1.0000   1.0000   1.0000   1.0000   1.0000
     1.0000   1.0000   1.0000   1.0000   1.0000   1.0000   1.0000   1.0000
     1.0000   1.0000   1.0000   1.0000   1.0000   1.0000   1.0000   1.0000
     1.0000   0.0000   0.0000   0.0000   0.0000   0.0000   0.0000   0.0000
     0.0000   0.0000   0.0000   0.0000   0.0000   0.0000   0.0000   0.0000
     0.0000   0.0000

          k = 0.0000-0.5000 0.0000 ( 18412 PWs)   bands (ev):

    -6.1742  -6.1741  -4.9178  -4.9178  -4.9178  -4.9177  -4.5734  -4.5733
    -4.5246  -4.5246  -4.5137  -4.5137  -4.5137  -4.5136  -4.5106  -4.5105
    -4.3399  -4.3398  -4.2116  -4.2115  -4.1625  -4.1624  -3.6632  -3.6632
    -3.6632  -3.6631  -3.5731  -3.5730  -3.1921  -3.1920  -3.1920  -3.1920
    -3.1062  -3.1061  -3.1061  -3.1061  -3.0611  -3.0611  -3.0610  -3.0610
    -2.9721  -2.9720  -2.9161  -2.9161  -2.5197  -2.5196  -2.3181  -2.3180
    -2.3094  -2.3094  -2.3094  -2.3094  -2.2864  -2.2863  -2.1102  -2.1101
    -1.8803  -1.8802  -1.8432  -1.8432  -1.8432  -1.8432  -1.8116  -1.8116
    -1.8115  -1.8115  -1.7393  -1.7392  -1.7030  -1.7029  -1.6375  -1.6375
    -1.6374  -1.6374  -1.5675  -1.5674  -1.5529  -1.5529  -1.3858  -1.3857
    -1.1891  -1.1891  -0.9497  -0.9497  -0.9497  -0.9497  -0.5165  -0.5165
     0.6025   0.6026   1.5824   1.5824   1.5825   1.5825   3.2735   3.2736
     3.5877   3.5878   4.1449   4.1449   4.1449   4.1449   5.5155   5.5156
     5.5157   5.5158

     occupation numbers 
     1.0000   1.0000   1.0000   1.0000   1.0000   1.0000   1.0000   1.0000
     1.0000   1.0000   1.0000   1.0000   1.0000   1.0000   1.0000   1.0000
     1.0000   1.0000   1.0000   1.0000   1.0000   1.0000   1.0000   1.0000
     1.0000   1.0000   1.0000   1.0000   1.0000   1.0000   1.0000   1.0000
     1.0000   1.0000   1.0000   1.0000   1.0000   1.0000   1.0000   1.0000
     1.0000   1.0000   1.0000   1.0000   1.0000   1.0000   1.0000   1.0000
     1.0000   1.0000   1.0000   1.0000   1.0000   1.0000   1.0000   1.0000
     1.0000   1.0000   1.0000   1.0000   1.0000   1.0000   1.0000   1.0000
     1.0000   1.0000   1.0000   1.0000   1.0000   1.0000   1.0000   1.0000
     1.0000   1.0000   1.0000   1.0000   1.0000   1.0000   1.0000   1.0000
     1.0000   1.0000   1.0000   1.0000   1.0000   1.0000   1.0000   1.0000
     0.0000   0.0000   0.0000   0.0000   0.0000   0.0000   0.0000   0.0000
     0.0000   0.0000   0.0000   0.0000   0.0000   0.0000   0.0000   0.0000
     0.0000   0.0000

          k = 0.1667 0.1667 0.0000 ( 18461 PWs)   bands (ev):

    -6.6519  -5.2545  -5.2545  -5.0699  -4.9714  -4.8194  -4.8110  -4.8109
    -4.7406  -4.6145  -4.6138  -4.5933  -4.5932  -4.3343  -4.3342  -4.2470
    -4.2470  -4.0838  -4.0838  -3.8799  -3.8799  -3.8464  -3.8464  -3.8004
    -3.6518  -3.6518  -3.6237  -3.4421  -3.4416  -3.3112  -3.0967  -3.0967
    -3.0589  -3.0589  -3.0516  -3.0512  -2.9938  -2.9938  -2.9876  -2.9876
    -2.8586  -2.8418  -2.8355  -2.8355  -2.7948  -2.7239  -2.6109  -2.6109
    -2.5016  -2.4661  -2.4661  -2.4017  -2.4017  -2.2614  -2.0871  -2.0871
    -2.0816  -2.0815  -2.0529  -1.9464  -1.9464  -1.9397  -1.9397  -1.9215
    -1.9213  -1.8977  -1.6958  -1.6951  -1.6507  -1.6507  -1.5965  -1.5961
    -1.5897  -1.5000  -1.5000  -1.4812  -1.3992  -1.3992  -1.3745  -1.3136
    -1.2875  -1.0553  -1.0247  -1.0247  -0.9090  -0.9080  -0.6655   0.5009
     0.5009   1.0628   1.0629   1.8274   1.8723   1.8723   2.4744   2.7783
     3.3200   3.3203   3.5121   3.5126   4.7234   4.7234   4.7895   5.3301
     5.7046   6.1313

     occupation numbers 
     1.0000   1.0000   1.0000   1.0000   1.0000   1.0000   1.0000   1.0000
     1.0000   1.0000   1.0000   1.0000   1.0000   1.0000   1.0000   1.0000
     1.0000   1.0000   1.0000   1.0000   1.0000   1.0000   1.0000   1.0000
     1.0000   1.0000   1.0000   1.0000   1.0000   1.0000   1.0000   1.0000
     1.0000   1.0000   1.0000   1.0000   1.0000   1.0000   1.0000   1.0000
     1.0000   1.0000   1.0000   1.0000   1.0000   1.0000   1.0000   1.0000
     1.0000   1.0000   1.0000   1.0000   1.0000   1.0000   1.0000   1.0000
     1.0000   1.0000   1.0000   1.0000   1.0000   1.0000   1.0000   1.0000
     1.0000   1.0000   1.0000   1.0000   1.0000   1.0000   1.0000   1.0000
     1.0000   1.0000   1.0000   1.0000   1.0000   1.0000   1.0000   1.0000
     1.0000   1.0000   1.0000   1.0000   1.0000   1.0000   1.0000   0.0000
     0.0000   0.0000   0.0000   0.0000   0.0000   0.0000   0.0000   0.0000
     0.0000   0.0000   0.0000   0.0000   0.0000   0.0000   0.0000   0.0000
     0.0000   0.0000

          k = 0.1667 0.3333 0.0000 ( 18487 PWs)   bands (ev):

    -6.4489  -5.7088  -5.2334  -5.1476  -4.8609  -4.7503  -4.7458  -4.6306
    -4.6224  -4.5868  -4.5456  -4.4979  -4.4887  -4.4734  -4.4447  -4.2829
    -4.2762  -4.2362  -4.1684  -4.0628  -4.0577  -3.9277  -3.7856  -3.7612
    -3.6997  -3.6747  -3.5836  -3.5224  -3.3570  -3.3196  -3.2220  -3.1690
    -3.1458  -3.1304  -3.0965  -3.0099  -3.0049  -2.9753  -2.9634  -2.9111
    -2.8575  -2.8388  -2.8180  -2.8003  -2.7456  -2.6908  -2.5210  -2.5066
    -2.4679  -2.4359  -2.3514  -2.2769  -2.2514  -2.2437  -2.1653  -2.0925
    -2.0642  -2.0573  -1.9567  -1.9404  -1.9069  -1.8667  -1.8537  -1.8375
    -1.7972  -1.7912  -1.7568  -1.7446  -1.7428  -1.7352  -1.6839  -1.6571
    -1.6388  -1.6027  -1.5540  -1.4235  -1.4077  -1.4066  -1.3600  -1.3219
    -1.2826  -1.2457  -1.1801  -1.0697  -0.8283  -0.6753  -0.2472  -0.0335
     0.3898   0.6268   1.2643   2.0310   2.0791   2.1513   2.7193   2.8365
     2.9363   3.6998   3.8038   4.0042   4.5318   4.7672   4.8771   5.1241
     5.2088   5.4993

     occupation numbers 
     1.0000   1.0000   1.0000   1.0000   1.0000   1.0000   1.0000   1.0000
     1.0000   1.0000   1.0000   1.0000   1.0000   1.0000   1.0000   1.0000
     1.0000   1.0000   1.0000   1.0000   1.0000   1.0000   1.0000   1.0000
     1.0000   1.0000   1.0000   1.0000   1.0000   1.0000   1.0000   1.0000
     1.0000   1.0000   1.0000   1.0000   1.0000   1.0000   1.0000   1.0000
     1.0000   1.0000   1.0000   1.0000   1.0000   1.0000   1.0000   1.0000
     1.0000   1.0000   1.0000   1.0000   1.0000   1.0000   1.0000   1.0000
     1.0000   1.0000   1.0000   1.0000   1.0000   1.0000   1.0000   1.0000
     1.0000   1.0000   1.0000   1.0000   1.0000   1.0000   1.0000   1.0000
     1.0000   1.0000   1.0000   1.0000   1.0000   1.0000   1.0000   1.0000
     1.0000   1.0000   1.0000   1.0000   1.0000   1.0000   1.0000   1.0000
     0.0164   0.0000   0.0000   0.0000   0.0000   0.0000   0.0000   0.0000
     0.0000   0.0000   0.0000   0.0000   0.0000   0.0000   0.0000   0.0000
     0.0000   0.0000

          k = 0.1667-0.5000 0.0000 ( 18476 PWs)   bands (ev):

    -6.1251  -6.1250  -5.1993  -5.1992  -4.6898  -4.6898  -4.6792  -4.6791
    -4.6182  -4.6182  -4.4872  -4.4872  -4.4309  -4.4309  -4.3452  -4.3452
    -4.3272  -4.3272  -4.1985  -4.1984  -4.1442  -4.1442  -3.7129  -3.7129
    -3.6531  -3.6530  -3.5358  -3.5357  -3.4620  -3.4619  -3.1368  -3.1368
    -3.1211  -3.1211  -3.0801  -3.0801  -3.0514  -3.0514  -2.9315  -2.9315
    -2.8914  -2.8913  -2.8154  -2.8153  -2.6198  -2.6197  -2.5282  -2.5281
    -2.3142  -2.3142  -2.2907  -2.2906  -2.1624  -2.1624  -2.0832  -2.0832
    -2.0683  -2.0683  -2.0108  -2.0107  -1.8391  -1.8390  -1.8063  -1.8062
    -1.7670  -1.7669  -1.7598  -1.7597  -1.7188  -1.7188  -1.6694  -1.6693
    -1.6220  -1.6219  -1.6109  -1.6109  -1.5640  -1.5639  -1.3137  -1.3136
    -1.2687  -1.2687  -1.2581  -1.2581  -0.4789  -0.4789  -0.1912  -0.1912
     0.8075   0.8076   0.8694   0.8694   2.4172   2.4173   3.3645   3.3645
     3.4277   3.4277   3.5616   3.5617   4.9279   4.9280   4.9596   4.9597
     5.0683   5.0683

     occupation numbers 
     1.0000   1.0000   1.0000   1.0000   1.0000   1.0000   1.0000   1.0000
     1.0000   1.0000   1.0000   1.0000   1.0000   1.0000   1.0000   1.0000
     1.0000   1.0000   1.0000   1.0000   1.0000   1.0000   1.0000   1.0000
     1.0000   1.0000   1.0000   1.0000   1.0000   1.0000   1.0000   1.0000
     1.0000   1.0000   1.0000   1.0000   1.0000   1.0000   1.0000   1.0000
     1.0000   1.0000   1.0000   1.0000   1.0000   1.0000   1.0000   1.0000
     1.0000   1.0000   1.0000   1.0000   1.0000   1.0000   1.0000   1.0000
     1.0000   1.0000   1.0000   1.0000   1.0000   1.0000   1.0000   1.0000
     1.0000   1.0000   1.0000   1.0000   1.0000   1.0000   1.0000   1.0000
     1.0000   1.0000   1.0000   1.0000   1.0000   1.0000   1.0000   1.0000
     1.0000   1.0000   1.0000   1.0000   1.0000   1.0000   1.0000   1.0000
     0.0000   0.0000   0.0000   0.0000   0.0000   0.0000   0.0000   0.0000
     0.0000   0.0000   0.0000   0.0000   0.0000   0.0000   0.0000   0.0000
     0.0000   0.0000

          k = 0.3333 0.3333 0.0000 ( 18492 PWs)   bands (ev):

    -6.2681  -5.6228  -5.6227  -5.3305  -4.8438  -4.7526  -4.6174  -4.6174
    -4.5583  -4.5582  -4.4832  -4.4832  -4.4491  -4.4486  -4.3694  -4.2578
    -4.2578  -4.2248  -4.2245  -3.9469  -3.9469  -3.8715  -3.8715  -3.8560
    -3.8560  -3.7184  -3.5947  -3.5688  -3.5685  -3.2339  -3.2339  -3.1696
    -3.1363  -3.1363  -3.1180  -3.1174  -3.0983  -2.8080  -2.8080  -2.7727
    -2.7463  -2.7463  -2.7305  -2.7084  -2.6875  -2.6875  -2.6341  -2.6127
    -2.6127  -2.5194  -2.4215  -2.4215  -2.2721  -2.1905  -2.1900  -2.1742
    -2.1742  -2.1348  -1.9033  -1.9027  -1.8776  -1.8776  -1.8697  -1.8693
    -1.8122  -1.8122  -1.7726  -1.7575  -1.7575  -1.7131  -1.7131  -1.6885
    -1.6657  -1.6654  -1.6412  -1.4612  -1.4612  -1.4575  -1.3044  -1.3038
    -1.2896  -1.2896  -1.2851  -1.2390  -0.6563   0.0805   0.0805   0.2121
     0.2121   0.6966   1.4418   1.4421   2.4962   2.4965   2.8985   2.8985
     3.1519   4.0073   4.0076   4.1959   4.1959   4.2125   4.2125   4.7783
     4.8824   5.6151

     occupation numbers 
     1.0000   1.0000   1.0000   1.0000   1.0000   1.0000   1.0000   1.0000
     1.0000   1.0000   1.0000   1.0000   1.0000   1.0000   1.0000   1.0000
     1.0000   1.0000   1.0000   1.0000   1.0000   1.0000   1.0000   1.0000
     1.0000   1.0000   1.0000   1.0000   1.0000   1.0000   1.0000   1.0000
     1.0000   1.0000   1.0000   1.0000   1.0000   1.0000   1.0000   1.0000
     1.0000   1.0000   1.0000   1.0000   1.0000   1.0000   1.0000   1.0000
     1.0000   1.0000   1.0000   1.0000   1.0000   1.0000   1.0000   1.0000
     1.0000   1.0000   1.0000   1.0000   1.0000   1.0000   1.0000   1.0000
     1.0000   1.0000   1.0000   1.0000   1.0000   1.0000   1.0000   1.0000
     1.0000   1.0000   1.0000   1.0000   1.0000   1.0000   1.0000   1.0000
     1.0000   1.0000   1.0000   1.0000   1.0000   1.0000   1.0000   1.0000
     1.0000   0.0000   0.0000   0.0000   0.0000   0.0000   0.0000   0.0000
     0.0000   0.0000   0.0000   0.0000   0.0000   0.0000   0.0000   0.0000
     0.0000   0.0000

          k = 0.3333-0.5000 0.0000 ( 18480 PWs)   bands (ev):

    -5.9832  -5.9831  -5.4923  -5.4923  -4.7595  -4.7595  -4.7110  -4.7110
    -4.5044  -4.5043  -4.4346  -4.4346  -4.3901  -4.3901  -4.3346  -4.3346
    -4.1176  -4.1175  -4.1033  -4.1032  -4.0795  -4.0795  -3.7790  -3.7789
    -3.7631  -3.7630  -3.7251  -3.7250  -3.4279  -3.4278  -3.1747  -3.1747
    -3.1604  -3.1604  -2.9936  -2.9936  -2.9641  -2.9641  -2.8981  -2.8981
    -2.7548  -2.7548  -2.7344  -2.7343  -2.6384  -2.6383  -2.5491  -2.5490
    -2.4178  -2.4178  -2.3760  -2.3760  -2.3573  -2.3573  -2.3191  -2.3190
    -2.0790  -2.0790  -2.0304  -2.0303  -1.9274  -1.9273  -1.8788  -1.8788
    -1.8555  -1.8554  -1.8377  -1.8377  -1.6777  -1.6777  -1.6647  -1.6647
    -1.5647  -1.5647  -1.5475  -1.5475  -1.5296  -1.5296  -1.3778  -1.3778
    -1.2642  -1.2641  -1.2487  -1.2487  -0.3496  -0.3496   0.3102   0.3102
     0.7923   0.7924   1.2960   1.2961   2.5446   2.5446   3.0163   3.0164
     3.6191   3.6192   3.6255   3.6256   4.4942   4.4942   4.5264   4.5265
     5.1972   5.1973

     occupation numbers 
     1.0000   1.0000   1.0000   1.0000   1.0000   1.0000   1.0000   1.0000
     1.0000   1.0000   1.0000   1.0000   1.0000   1.0000   1.0000   1.0000
     1.0000   1.0000   1.0000   1.0000   1.0000   1.0000   1.0000   1.0000
     1.0000   1.0000   1.0000   1.0000   1.0000   1.0000   1.0000   1.0000
     1.0000   1.0000   1.0000   1.0000   1.0000   1.0000   1.0000   1.0000
     1.0000   1.0000   1.0000   1.0000   1.0000   1.0000   1.0000   1.0000
     1.0000   1.0000   1.0000   1.0000   1.0000   1.0000   1.0000   1.0000
     1.0000   1.0000   1.0000   1.0000   1.0000   1.0000   1.0000   1.0000
     1.0000   1.0000   1.0000   1.0000   1.0000   1.0000   1.0000   1.0000
     1.0000   1.0000   1.0000   1.0000   1.0000   1.0000   1.0000   1.0000
     1.0000   1.0000   1.0000   1.0000   1.0000   1.0000   0.7341   0.7331
     0.0000   0.0000   0.0000   0.0000   0.0000   0.0000   0.0000   0.0000
     0.0000   0.0000   0.0000   0.0000   0.0000   0.0000   0.0000   0.0000
     0.0000   0.0000

          k =-0.5000-0.5000 0.0000 ( 18528 PWs)   bands (ev):

    -5.7640  -5.7639  -5.7639  -5.7638  -4.7638  -4.7638  -4.7638  -4.7638
    -4.3936  -4.3936  -4.3936  -4.3936  -4.3933  -4.3932  -4.3932  -4.3932
    -3.9513  -3.9512  -3.9512  -3.9512  -3.9508  -3.9507  -3.9507  -3.9507
    -3.8817  -3.8816  -3.8816  -3.8816  -3.2750  -3.2750  -3.2750  -3.2749
    -3.1660  -3.1660  -3.1660  -3.1660  -2.7172  -2.7172  -2.7172  -2.7171
    -2.6686  -2.6685  -2.6685  -2.6685  -2.6675  -2.6675  -2.6675  -2.6675
    -2.5503  -2.5502  -2.5502  -2.5502  -2.4005  -2.4004  -2.4004  -2.4003
    -1.9989  -1.9989  -1.9989  -1.9989  -1.9986  -1.9985  -1.9985  -1.9985
    -1.9143  -1.9142  -1.9142  -1.9142  -1.5945  -1.5944  -1.5944  -1.5944
    -1.5110  -1.5110  -1.5110  -1.5110  -1.5106  -1.5105  -1.5105  -1.5105
    -1.2366  -1.2366  -1.2366  -1.2365  -0.0943  -0.0942  -0.0942  -0.0941
     1.9084   1.9084   1.9084   1.9085   1.9087   1.9087   1.9087   1.9088
     4.0263   4.0264   4.0264   4.0264   4.7589   4.7590   4.7590   4.7590
     4.7591   4.7591

     occupation numbers 
     1.0000   1.0000   1.0000   1.0000   1.0000   1.0000   1.0000   1.0000
     1.0000   1.0000   1.0000   1.0000   1.0000   1.0000   1.0000   1.0000
     1.0000   1.0000   1.0000   1.0000   1.0000   1.0000   1.0000   1.0000
     1.0000   1.0000   1.0000   1.0000   1.0000   1.0000   1.0000   1.0000
     1.0000   1.0000   1.0000   1.0000   1.0000   1.0000   1.0000   1.0000
     1.0000   1.0000   1.0000   1.0000   1.0000   1.0000   1.0000   1.0000
     1.0000   1.0000   1.0000   1.0000   1.0000   1.0000   1.0000   1.0000
     1.0000   1.0000   1.0000   1.0000   1.0000   1.0000   1.0000   1.0000
     1.0000   1.0000   1.0000   1.0000   1.0000   1.0000   1.0000   1.0000
     1.0000   1.0000   1.0000   1.0000   1.0000   1.0000   1.0000   1.0000
     1.0000   1.0000   1.0000   1.0000   1.0000   1.0000   1.0000   1.0000
     0.0000   0.0000   0.0000   0.0000   0.0000   0.0000   0.0000   0.0000
     0.0000   0.0000   0.0000   0.0000   0.0000   0.0000   0.0000   0.0000
     0.0000   0.0000

     the Fermi energy is     0.3282 ev

!    total energy              =   -1839.20303466 Ry
     estimated scf accuracy    <       0.00000092 Ry
     smearing contrib. (-TS)   =      -0.00034833 Ry
     internal energy E=F+TS    =   -1839.20268634 Ry

     The total energy is F=E-TS. E is the sum of the following terms:
     one-electron contribution =   -3574.25949327 Ry
     hartree contribution      =    1914.64441537 Ry
     xc contribution           =    -994.40052541 Ry
     ewald contribution        =     814.81291698 Ry

     convergence has been achieved in   4 iterations

     negative rho (up, down):  7.587E-05 0.000E+00

     Forces acting on atoms (cartesian axes, Ry/au):

     atom    1 type  1   force =     0.00000000    0.00000000    0.00862298
     atom    2 type  1   force =     0.00000000    0.00002684   -0.00858655
     atom    3 type  1   force =     0.00002684    0.00000000   -0.00858655
     atom    4 type  1   force =     0.00002596    0.00002596    0.00855518
     atom    5 type  1   force =     0.00000000    0.00000000    0.00862980
     atom    6 type  1   force =     0.00000000   -0.00002684   -0.00858655
     atom    7 type  1   force =     0.00002606    0.00000000   -0.00859866
     atom    8 type  1   force =     0.00002596   -0.00002596    0.00855518
     atom    9 type  1   force =     0.00000000    0.00000000    0.00862980
     atom   10 type  1   force =     0.00000000    0.00002606   -0.00859866
     atom   11 type  1   force =    -0.00002684    0.00000000   -0.00858655
     atom   12 type  1   force =    -0.00002596    0.00002596    0.00855518
     atom   13 type  1   force =     0.00000000    0.00000000    0.00863757
     atom   14 type  1   force =     0.00000000   -0.00002606   -0.00859866
     atom   15 type  1   force =    -0.00002606    0.00000000   -0.00859866
     atom   16 type  1   force =    -0.00002596   -0.00002596    0.00855518
     The non-local contrib.  to forces
     atom    1 type  1   force =     0.00000000    0.00000000    0.02036265
     atom    2 type  1   force =     0.00000000    0.00001757   -0.01997793
     atom    3 type  1   force =     0.00001757    0.00000000   -0.01997793
     atom    4 type  1   force =     0.00001530    0.00001530    0.02036230
     atom    5 type  1   force =     0.00000000    0.00000000    0.02036274
     atom    6 type  1   force =     0.00000000   -0.00001757   -0.01997793
     atom    7 type  1   force =     0.00001577    0.00000000   -0.01998316
     atom    8 type  1   force =     0.00001530   -0.00001530    0.02036230
     atom    9 type  1   force =     0.00000000    0.00000000    0.02036274
     atom   10 type  1   force =     0.00000000    0.00001577   -0.01998316
     atom   11 type  1   force =    -0.00001757    0.00000000   -0.01997793
     atom   12 type  1   force =    -0.00001530    0.00001530    0.02036230
     atom   13 type  1   force =     0.00000000    0.00000000    0.02036574
     atom   14 type  1   force =     0.00000000   -0.00001577   -0.01998316
     atom   15 type  1   force =    -0.00001577    0.00000000   -0.01998316
     atom   16 type  1   force =    -0.00001530   -0.00001530    0.02036230
     The ionic contribution  to forces
     atom    1 type  1   force =    -0.00003841   -0.00003841  -32.63860011
     atom    2 type  1   force =    -0.00003841   -0.00011362   32.63899212
     atom    3 type  1   force =    -0.00011362   -0.00003841   32.63899212
     atom    4 type  1   force =    -0.00012300   -0.00012300  -32.63943694
     atom    5 type  1   force =    -0.00003841    0.00001492  -32.63856052
     atom    6 type  1   force =    -0.00003841    0.00013711   32.63897545
     atom    7 type  1   force =    -0.00014496    0.00001492   32.63899744
     atom    8 type  1   force =    -0.00012300    0.00014649  -32.63942026
     atom    9 type  1   force =     0.00001492   -0.00003841  -32.63856052
     atom   10 type  1   force =     0.00001492   -0.00014496   32.63899744
     atom   11 type  1   force =     0.00013711   -0.00003841   32.63897545
     atom   12 type  1   force =     0.00014649   -0.00012300  -32.63942026
     atom   13 type  1   force =     0.00001492    0.00001492  -32.63848937
     atom   14 type  1   force =     0.00001492    0.00016845   32.63898077
     atom   15 type  1   force =     0.00016845    0.00001492   32.63898077
     atom   16 type  1   force =     0.00014649    0.00014649  -32.63940359
     The local contribution  to forces
     atom    1 type  1   force =    -0.00000000   -0.00000000   32.59908397
     atom    2 type  1   force =    -0.00000000    0.00006204  -32.60151615
     atom    3 type  1   force =     0.00006204   -0.00000000  -32.60151615
     atom    4 type  1   force =     0.00006987    0.00006987   32.59987525
     atom    5 type  1   force =    -0.00000000    0.00004998   32.59901095
     atom    6 type  1   force =    -0.00000000    0.00003792  -32.60151615
     atom    7 type  1   force =     0.00009179    0.00004998  -32.60148731
[...]
     1.0000   1.0000   1.0000   1.0000   1.0000   1.0000   1.0000   1.0000
     1.0000   1.0000   1.0000   1.0000   1.0000   1.0000   1.0000   1.0000
     1.0000   1.0000   1.0000   1.0000   1.0000   1.0000   0.2578   0.2568
     0.0000   0.0000   0.0000   0.0000   0.0000   0.0000   0.0000   0.0000
     0.0000   0.0000   0.0000   0.0000   0.0000   0.0000   0.0000   0.0000
     0.0000   0.0000

          k =-0.5000-0.5000 0.0000 ( 18528 PWs)   bands (ev):

    -5.8808  -5.8806  -5.8806  -5.8804  -4.8561  -4.8561  -4.8561  -4.8561
    -4.5007  -4.5007  -4.5006  -4.5006  -4.5005  -4.5005  -4.5004  -4.5004
    -4.0580  -4.0579  -4.0579  -4.0579  -4.0578  -4.0578  -4.0577  -4.0577
    -3.9638  -3.9637  -3.9637  -3.9636  -3.2383  -3.2382  -3.2382  -3.2381
    -3.2174  -3.2173  -3.2173  -3.2172  -2.8284  -2.8283  -2.8283  -2.8282
    -2.6876  -2.6876  -2.6876  -2.6875  -2.6875  -2.6875  -2.6875  -2.6874
    -2.4927  -2.4927  -2.4927  -2.4926  -2.4913  -2.4912  -2.4912  -2.4912
    -1.9386  -1.9386  -1.9385  -1.9385  -1.9385  -1.9385  -1.9384  -1.9384
    -1.8920  -1.8920  -1.8920  -1.8919  -1.5452  -1.5451  -1.5451  -1.5450
    -1.4990  -1.4990  -1.4990  -1.4990  -1.4990  -1.4990  -1.4990  -1.4989
    -1.1799  -1.1798  -1.1798  -1.1798  -0.0161  -0.0160  -0.0160  -0.0159
     1.8992   1.8992   1.8993   1.8993   1.8993   1.8994   1.8994   1.8994
     4.0976   4.0977   4.0977   4.0978   4.8567   4.8567   4.8567   4.8567
     4.8568   4.8568

     occupation numbers 
     1.0000   1.0000   1.0000   1.0000   1.0000   1.0000   1.0000   1.0000
     1.0000   1.0000   1.0000   1.0000   1.0000   1.0000   1.0000   1.0000
     1.0000   1.0000   1.0000   1.0000   1.0000   1.0000   1.0000   1.0000
     1.0000   1.0000   1.0000   1.0000   1.0000   1.0000   1.0000   1.0000
     1.0000   1.0000   1.0000   1.0000   1.0000   1.0000   1.0000   1.0000
     1.0000   1.0000   1.0000   1.0000   1.0000   1.0000   1.0000   1.0000
     1.0000   1.0000   1.0000   1.0000   1.0000   1.0000   1.0000   1.0000
     1.0000   1.0000   1.0000   1.0000   1.0000   1.0000   1.0000   1.0000
     1.0000   1.0000   1.0000   1.0000   1.0000   1.0000   1.0000   1.0000
     1.0000   1.0000   1.0000   1.0000   1.0000   1.0000   1.0000   1.0000
     1.0000   1.0000   1.0000   1.0000   1.0000   1.0000   1.0000   1.0000
     0.0000   0.0000   0.0000   0.0000   0.0000   0.0000   0.0000   0.0000
     0.0000   0.0000   0.0000   0.0000   0.0000   0.0000   0.0000   0.0000
     0.0000   0.0000

     the Fermi energy is     0.3808 ev

!    total energy              =   -1839.20725992 Ry
     estimated scf accuracy    <          9.4E-09 Ry
     smearing contrib. (-TS)   =      -0.00068024 Ry
     internal energy E=F+TS    =   -1839.20657968 Ry

     The total energy is F=E-TS. E is the sum of the following terms:
     one-electron contribution =   -3639.23772887 Ry
     hartree contribution      =    1947.08097230 Ry
     xc contribution           =    -994.58840120 Ry
     ewald contribution        =     847.53857809 Ry

     convergence has been achieved in   5 iterations

     negative rho (up, down):  7.857E-05 0.000E+00

     Forces acting on atoms (cartesian axes, Ry/au):

     atom    1 type  1   force =     0.00000000    0.00000000   -0.00006367
     atom    2 type  1   force =     0.00000000    0.00000901    0.00004839
     atom    3 type  1   force =     0.00000901    0.00000000    0.00004839
     atom    4 type  1   force =     0.00000817    0.00000817   -0.00004062
     atom    5 type  1   force =     0.00000000    0.00000000   -0.00004691
     atom    6 type  1   force =     0.00000000   -0.00000901    0.00004839
     atom    7 type  1   force =     0.00000790    0.00000000    0.00003928
     atom    8 type  1   force =     0.00000817   -0.00000817   -0.00004062
     atom    9 type  1   force =     0.00000000    0.00000000   -0.00004691
     atom   10 type  1   force =     0.00000000    0.00000790    0.00003928
     atom   11 type  1   force =    -0.00000901    0.00000000    0.00004839
     atom   12 type  1   force =    -0.00000817    0.00000817   -0.00004062
     atom   13 type  1   force =     0.00000000    0.00000000   -0.00003071
     atom   14 type  1   force =     0.00000000   -0.00000790    0.00003928
     atom   15 type  1   force =    -0.00000790    0.00000000    0.00003928
     atom   16 type  1   force =    -0.00000817   -0.00000817   -0.00004062
     The non-local contrib.  to forces
     atom    1 type  1   force =     0.00000000    0.00000000    0.01744747
     atom    2 type  1   force =     0.00000000    0.00000525   -0.01747933
     atom    3 type  1   force =     0.00000525    0.00000000   -0.01747933
     atom    4 type  1   force =     0.00000485    0.00000485    0.01744780
     atom    5 type  1   force =     0.00000000    0.00000000    0.01743981
     atom    6 type  1   force =     0.00000000   -0.00000525   -0.01747933
     atom    7 type  1   force =     0.00000487    0.00000000   -0.01746038
     atom    8 type  1   force =     0.00000485   -0.00000485    0.01744780
     atom    9 type  1   force =     0.00000000    0.00000000    0.01743981
     atom   10 type  1   force =     0.00000000    0.00000487   -0.01746038
     atom   11 type  1   force =    -0.00000525    0.00000000   -0.01747933
     atom   12 type  1   force =    -0.00000485    0.00000485    0.01744780
     atom   13 type  1   force =     0.00000000    0.00000000    0.01743335
     atom   14 type  1   force =     0.00000000   -0.00000487   -0.01746038
     atom   15 type  1   force =    -0.00000487    0.00000000   -0.01746038
     atom   16 type  1   force =    -0.00000485   -0.00000485    0.01744780
     The ionic contribution  to forces
     atom    1 type  1   force =    -0.00003942   -0.00003942  -32.82239852
     atom    2 type  1   force =    -0.00003941    0.00129816   32.82553412
     atom    3 type  1   force =     0.00129816   -0.00003941   32.82553412
     atom    4 type  1   force =     0.00123552    0.00123552  -32.82892815
     atom    5 type  1   force =    -0.00003942    0.00001508  -32.82141835
     atom    6 type  1   force =    -0.00003941   -0.00127381   32.82551666
     atom    7 type  1   force =     0.00117117    0.00001508   32.82480476
     atom    8 type  1   force =     0.00123552   -0.00121118  -32.82891069
     atom    9 type  1   force =     0.00001508   -0.00003942  -32.82141835
     atom   10 type  1   force =     0.00001508    0.00117117   32.82480476
     atom   11 type  1   force =    -0.00127381   -0.00003941   32.82551666
     atom   12 type  1   force =    -0.00121118    0.00123552  -32.82891069
     atom   13 type  1   force =     0.00001508    0.00001508  -32.82040770
     atom   14 type  1   force =     0.00001508   -0.00114682   32.82478731
     atom   15 type  1   force =    -0.00114682    0.00001508   32.82478731
     atom   16 type  1   force =    -0.00121118   -0.00121118  -32.82889324
     The local contribution  to forces
     atom    1 type  1   force =    -0.00000000   -0.00000000   32.77551985
     atom    2 type  1   force =    -0.00000000   -0.00123000  -32.77853592
     atom    3 type  1   force =    -0.00123000   -0.00000000  -32.77853592
     atom    4 type  1   force =    -0.00117006   -0.00117006   32.78211268
     atom    5 type  1   force =    -0.00000000    0.00004950   32.77457243
     atom    6 type  1   force =    -0.00000000    0.00132900  -32.77853592
     atom    7 type  1   force =    -0.00110500    0.00004951  -32.77783725
     atom    8 type  1   force =    -0.00117006    0.00126907   32.78211268
     atom    9 type  1   force =     0.00004950   -0.00000000   32.77457243
     atom   10 type  1   force =     0.00004951   -0.00110500  -32.77783725
     atom   11 type  1   force =     0.00132900   -0.00000000  -32.77853592
     atom   12 type  1   force =     0.00126907   -0.00117006   32.78211268
     atom   13 type  1   force =     0.00004950    0.00004950   32.77359178
     atom   14 type  1   force =     0.00004951    0.00120401  -32.77783725
     atom   15 type  1   force =     0.00120401    0.00004951  -32.77783725
     atom   16 type  1   force =     0.00126907    0.00126907   32.78211267
     The core correction contribution to forces
     atom    1 type  1   force =    -0.00000000   -0.00000000    0.02942941
     atom    2 type  1   force =    -0.00000000    0.00001294   -0.02940968
     atom    3 type  1   force =     0.00001294   -0.00000000   -0.02940968
     atom    4 type  1   force =     0.00001297    0.00001297    0.02937500
     atom    5 type  1   force =     0.00000000    0.00001504    0.02942418
     atom    6 type  1   force =    -0.00000000    0.00001716   -0.02940968
     atom    7 type  1   force =     0.00001320    0.00001504   -0.02940674
     atom    8 type  1   force =     0.00001297    0.00001713    0.02937500
     atom    9 type  1   force =     0.00001504    0.00000000    0.02942418
     atom   10 type  1   force =     0.00001504    0.00001320   -0.02940674
     atom   11 type  1   force =     0.00001716   -0.00000000   -0.02940968
     atom   12 type  1   force =     0.00001713    0.00001297    0.02937500
     atom   13 type  1   force =     0.00001505    0.00001505    0.02941967
     atom   14 type  1   force =     0.00001504    0.00001689   -0.02940674
     atom   15 type  1   force =     0.00001689    0.00001504   -0.02940674
     atom   16 type  1   force =     0.00001713    0.00001713    0.02937500
     The Hubbard contrib.    to forces
     atom    1 type  1   force =     0.00000000    0.00000000    0.00000000
     atom    2 type  1   force =     0.00000000    0.00000000    0.00000000
     atom    3 type  1   force =     0.00000000    0.00000000    0.00000000
     atom    4 type  1   force =     0.00000000    0.00000000    0.00000000
     atom    5 type  1   force =     0.00000000    0.00000000    0.00000000
     atom    6 type  1   force =     0.00000000    0.00000000    0.00000000
     atom    7 type  1   force =     0.00000000    0.00000000    0.00000000
     atom    8 type  1   force =     0.00000000    0.00000000    0.00000000
     atom    9 type  1   force =     0.00000000    0.00000000    0.00000000
     atom   10 type  1   force =     0.00000000    0.00000000    0.00000000
     atom   11 type  1   force =     0.00000000    0.00000000    0.00000000
     atom   12 type  1   force =     0.00000000    0.00000000    0.00000000
     atom   13 type  1   force =     0.00000000    0.00000000    0.00000000
     atom   14 type  1   force =     0.00000000    0.00000000    0.00000000
     atom   15 type  1   force =     0.00000000    0.00000000    0.00000000
     atom   16 type  1   force =     0.00000000    0.00000000    0.00000000
     The SCF correction term to forces
     atom    1 type  1   force =    -0.00000000   -0.00000000   -0.00008447
     atom    2 type  1   force =    -0.00000000   -0.00000062   -0.00007466
     atom    3 type  1   force =    -0.00000062   -0.00000000   -0.00007466
     atom    4 type  1   force =     0.00000161    0.00000161   -0.00008799
     atom    5 type  1   force =    -0.00000000   -0.00000000   -0.00008756
     atom    6 type  1   force =    -0.00000000    0.00000062   -0.00007467
     atom    7 type  1   force =     0.00000039   -0.00000000   -0.00007497
     atom    8 type  1   force =     0.00000161   -0.00000161   -0.00008799
     atom    9 type  1   force =    -0.00000000   -0.00000000   -0.00008756
     atom   10 type  1   force =    -0.00000000    0.00000039   -0.00007497
     atom   11 type  1   force =     0.00000062   -0.00000000   -0.00007467
     atom   12 type  1   force =    -0.00000161    0.00000161   -0.00008799
     atom   13 type  1   force =    -0.00000000   -0.00000000   -0.00009041
     atom   14 type  1   force =    -0.00000000   -0.00000039   -0.00007497
     atom   15 type  1   force =    -0.00000039   -0.00000000   -0.00007497
     atom   16 type  1   force =    -0.00000161   -0.00000161   -0.00008798

     Total force =     0.000181     Total SCF correction =     0.000326
     SCF correction compared to forces is large: reduce conv_thr to get better values


     Computing stress (Cartesian axis) and pressure


     negative rho (up, down):  7.857E-05 0.000E+00
          total   stress  (Ry/bohr**3)                   (kbar)     P=      -21.54
  -0.00021818   0.00000000   0.00000000          -32.09        0.00        0.00
   0.00000000  -0.00021818   0.00000000            0.00      -32.09        0.00
   0.00000000   0.00000000  -0.00000302            0.00        0.00       -0.44

     kinetic stress (kbar)   5917.17      0.00      0.00
                                0.00   5917.17      0.00
                                0.00      0.00   5998.60

     local   stress (kbar) -74988.11     -0.00     -0.00
                               -0.00 -74988.11     -0.00
                               -0.00     -0.00  88766.28

     nonloc. stress (kbar)  -3787.13      0.00      0.00
                                0.00  -3787.13      0.00
                                0.00      0.00  -3791.82

     hartree stress (kbar)  40543.69      0.00     -0.00
                                0.00  40543.69     -0.00
                               -0.00     -0.00 -38054.06

     exc-cor stress (kbar)  15341.93      0.00      0.00
                                0.00  15341.93      0.00
                                0.00      0.00  15335.53

     corecor stress (kbar) -17699.29      0.00      0.00
                                0.00 -17699.29      0.00
                                0.00      0.00 -17707.55

     ewald   stress (kbar)  34639.64      0.00      0.00
                                0.00  34639.64      0.00
                                0.00      0.00 -50547.43

     hubbard stress (kbar)      0.00      0.00      0.00
                                0.00      0.00      0.00
                                0.00      0.00      0.00

     DFT-D   stress (kbar)      0.00      0.00      0.00
                                0.00      0.00      0.00
                                0.00      0.00      0.00

     XDM     stress (kbar)      0.00      0.00      0.00
                                0.00      0.00      0.00
                                0.00      0.00      0.00

     dft-nl  stress (kbar)      0.00      0.00      0.00
                                0.00      0.00      0.00
                                0.00      0.00      0.00

     TS-vdW  stress (kbar)      0.00      0.00      0.00
                                0.00      0.00      0.00
                                0.00      0.00      0.00


     Energy error            =      2.8E-06
     Gradient error          =      6.4E-05

     bfgs converged in   7 scf cycles and   6 bfgs steps
     (criteria: energy <  1.0E-04 Ry, force <  1.0E-03 Ry/Bohr)

     End of BFGS Geometry Optimization

     Final energy   =   -1839.2072599238 Ry

     File ./surface.bfgs deleted, as requested
Begin final coordinates

ATOMIC_POSITIONS (angstrom)
Au            0.0000000000        0.0000000000        0.0382161703
Au            0.0000000000        2.0855937146        2.0475943596
Au            2.0855937146        0.0000000000        2.0475943596
Au            2.0855991393        2.0855991393        0.0378742077
Au            0.0000000000        4.1712880000        0.0382231621
Au            0.0000000000        6.2569822854        2.0475943596
Au            2.0855970255        4.1712880000        2.0475943868
Au            2.0855991393        6.2569768607        0.0378742077
Au            4.1712880000        0.0000000000        0.0382231621
Au            4.1712880000        2.0855970255        2.0475943868
Au            6.2569822854        0.0000000000        2.0475943596
Au            6.2569768607        2.0855991393        0.0378742077
Au            4.1712880000        4.1712880000        0.0382376888
Au            4.1712880000        6.2569789745        2.0475943868
Au            6.2569789745        4.1712880000        2.0475943868
Au            6.2569768607        6.2569768607        0.0378742077
End final coordinates



     Writing output data file ./surface.save/

     init_run     :      1.96s CPU      2.02s WALL (       1 calls)
     electrons    :    203.25s CPU    206.82s WALL (       7 calls)
     update_pot   :      2.01s CPU      2.03s WALL (       6 calls)
     forces       :      8.79s CPU      8.94s WALL (       7 calls)
     stress       :     32.54s CPU     32.98s WALL (       7 calls)

     Called by init_run:
     wfcinit      :      1.05s CPU      1.07s WALL (       1 calls)
     wfcinit:atom :      0.00s CPU      0.00s WALL (      10 calls)
     wfcinit:wfcr :      0.99s CPU      1.01s WALL (      10 calls)
     potinit      :      0.13s CPU      0.14s WALL (       1 calls)
     hinit0       :      0.24s CPU      0.26s WALL (       1 calls)

     Called by electrons:
     c_bands      :    161.31s CPU    163.03s WALL (      55 calls)
     sum_band     :     30.90s CPU     31.89s WALL (      55 calls)
     v_of_rho     :      1.91s CPU      1.93s WALL (      55 calls)
     v_h          :      0.14s CPU      0.14s WALL (      55 calls)
     v_xc         :      2.22s CPU      2.25s WALL (      69 calls)
     newd         :     10.09s CPU     10.81s WALL (      55 calls)
     mix_rho      :      0.18s CPU      0.18s WALL (      55 calls)

     Called by c_bands:
     init_us_2    :      0.83s CPU      0.85s WALL (    1250 calls)
     cegterg      :    155.47s CPU    157.13s WALL (     550 calls)

     Called by sum_band:
     sum_band:wei :      0.02s CPU      0.02s WALL (      55 calls)
     sum_band:loo :     16.85s CPU     17.05s WALL (      55 calls)
     sum_band:buf :      0.07s CPU      0.08s WALL (     550 calls)
     sum_band:ini :      0.35s CPU      0.36s WALL (     550 calls)
     sum_band:cal :      6.46s CPU      6.50s WALL (     550 calls)
     sum_band:bec :      0.20s CPU      0.20s WALL (     550 calls)
     addusdens    :      5.69s CPU      6.43s WALL (      55 calls)
     addusd:skk   :      0.05s CPU      0.06s WALL (      55 calls)
     addusd:dgemm :      1.07s CPU      1.73s WALL (      55 calls)
     addusd:qvan2 :      3.75s CPU      3.78s WALL (      55 calls)

     Called by *egterg:
     cdiaghg      :     23.22s CPU     23.41s WALL (    2223 calls)
     cegterg:over :     14.78s CPU     14.88s WALL (    1803 calls)
     cegterg:upda :      6.87s CPU      6.92s WALL (    1803 calls)
     cegterg:last :     17.53s CPU     17.65s WALL (    1447 calls)
     cdiaghg:chol :      1.06s CPU      1.08s WALL (    2223 calls)
     cdiaghg:inve :      1.01s CPU      1.02s WALL (    2223 calls)
     cdiaghg:para :      2.61s CPU      2.63s WALL (    4446 calls)
     h_psi        :     79.77s CPU     80.89s WALL (    2363 calls)
     s_psi        :      9.37s CPU      9.44s WALL (    2363 calls)
     g_psi        :      0.18s CPU      0.18s WALL (    1803 calls)

     Called by h_psi:
     h_psi:calbec :     21.16s CPU     21.31s WALL (    2363 calls)
     vloc_psi     :     48.46s CPU     49.36s WALL (    2363 calls)
     add_vuspsi   :      9.98s CPU     10.05s WALL (    2363 calls)

     General routines
     calbec       :     34.51s CPU     34.75s WALL (    3263 calls)
     fft          :      2.12s CPU      2.17s WALL (     889 calls)
     ffts         :      0.06s CPU      0.06s WALL (     110 calls)
     fftw         :     54.45s CPU     55.42s WALL (  403476 calls)
     interpolate  :      0.14s CPU      0.14s WALL (      55 calls)

     Parallel routines
     fft_scatt_xy :      4.30s CPU      4.38s WALL (  404475 calls)
     fft_scatt_yz :     29.27s CPU     29.81s WALL (  404475 calls)

     PWSCF        :   4m10.34s CPU   4m15.73s WALL


   This run was terminated on:   0:29:35   6Dec2021            

=------------------------------------------------------------------------------=
   JOB DONE.
=------------------------------------------------------------------------------=
