
     Program PWSCF v.6.7MaX starts on  6Dec2021 at  0:25:20 

     This program is part of the open-source Quantum ESPRESSO suite
     for quantum simulation of materials; please cite
         "P. Giannozzi et al., J. Phys.:Condens. Matter 21 395502 (2009);
         "P. Giannozzi et al., J. Phys.:Condens. Matter 29 465901 (2017);
          URL http://www.quantum-espresso.org", 
     in publications or presentations arising from this work. More details at
     http://www.quantum-espresso.org/quote

     Parallel version (MPI), running on    32 processors

     MPI processes distributed on     1 nodes
     R & G space division:  proc/nbgrp/npool/nimage =      32
     Reading input from au_surface.100.k.qe.5_5_1.in

     Current dimensions of program PWSCF are:
     Max number of different atomic species (ntypx) = 10
     Max number of k-points (npk) =  40000
     Max angular momentum in pseudopotentials (lmaxx) =  3

     Subspace diagonalization in iterative solution of the eigenvalue problem:
     one sub-group per band group will be used
     scalapack distributed-memory algorithm (size of sub-group:  5*  5 procs)

     Found symmetry operation: I + (  0.2500  0.2500  0.0000)
     This is a supercell, fractional translations are disabled

     Parallelization info
     --------------------
     sticks:   dense  smooth     PW     G-vecs:    dense   smooth      PW
     Min         185      74     20                18243     4618     652
     Max         186      75     21                18250     4623     655
     Sum        5949    2377    641               583927   147845   20881



     bravais-lattice index     =            8
     lattice parameter (alat)  =      15.7652  a.u.
     unit-cell volume          =    6655.8994 (a.u.)^3
     number of atoms/cell      =           16
     number of atomic types    =            1
     number of electrons       =       176.00
     number of Kohn-Sham states=          106
     kinetic-energy cutoff     =      30.0000  Ry
     charge density cutoff     =     300.0000  Ry
     scf convergence threshold =      1.0E-06
     mixing beta               =       0.3000
     number of iterations used =            8  plain     mixing
     energy convergence thresh.=      1.0E-04
     force convergence thresh. =      1.0E-03
     Exchange-correlation= SLA  PW   PBE  PBE
                           (   1   4   3   4   0   0   0)
     nstep                     =           50


     celldm(1)=  15.765191  celldm(2)=   1.000000  celldm(3)=   1.698670
     celldm(4)=   0.000000  celldm(5)=   0.000000  celldm(6)=   0.000000

     crystal axes: (cart. coord. in units of alat)
               a(1) = (   1.000000   0.000000   0.000000 )  
               a(2) = (   0.000000   1.000000   0.000000 )  
               a(3) = (   0.000000   0.000000   1.698670 )  

     reciprocal axes: (cart. coord. in units 2 pi/alat)
               b(1) = (  1.000000  0.000000  0.000000 )  
               b(2) = (  0.000000  1.000000  0.000000 )  
               b(3) = (  0.000000  0.000000  0.588696 )  


     PseudoPot. # 1 for Au read from file:
     /expanse/lustre/projects/csd622/tpascal/nano110/qe/pseudo/au_pbe_v1.uspp.F.UPF
     MD5 check sum: 9d7f43293ad2c663164586bc4b293ffc
     Pseudo is Ultrasoft + core correction, Zval = 11.0
     Generated by new atomic code, or converted to UPF format
     Using radial grid of  985 points,  7 beta functions with: 
                l(1) =   0
                l(2) =   0
                l(3) =   1
                l(4) =   1
                l(5) =   2
                l(6) =   2
                l(7) =   3
     Q(r) pseudized with  6 coefficients,  rinner =    1.900   1.900   1.900
                                                       1.900   1.900   1.900
                                                       1.900

     atomic species   valence    mass     pseudopotential
        Au            11.00   196.96655     Au( 1.00)

      8 Sym. Ops. (no inversion) found


                                    s                        frac. trans.

      isym =  1     identity                                     

 cryst.   s( 1) = (     1          0          0      )
                  (     0          1          0      )
                  (     0          0          1      )

 cart.    s( 1) = (  1.0000000  0.0000000  0.0000000 )
                  (  0.0000000  1.0000000  0.0000000 )
                  (  0.0000000  0.0000000  1.0000000 )


      isym =  2     180 deg rotation - cart. axis [0,0,1]        

 cryst.   s( 2) = (    -1          0          0      )
                  (     0         -1          0      )
                  (     0          0          1      )

 cart.    s( 2) = ( -1.0000000  0.0000000  0.0000000 )
                  (  0.0000000 -1.0000000  0.0000000 )
                  (  0.0000000  0.0000000  1.0000000 )


      isym =  3      90 deg rotation - cart. axis [0,0,-1]       

 cryst.   s( 3) = (     0         -1          0      )
                  (     1          0          0      )
                  (     0          0          1      )

 cart.    s( 3) = (  0.0000000  1.0000000  0.0000000 )
                  ( -1.0000000  0.0000000  0.0000000 )
                  (  0.0000000  0.0000000  1.0000000 )


      isym =  4      90 deg rotation - cart. axis [0,0,1]        

 cryst.   s( 4) = (     0          1          0      )
                  (    -1          0          0      )
                  (     0          0          1      )

 cart.    s( 4) = (  0.0000000 -1.0000000  0.0000000 )
                  (  1.0000000  0.0000000  0.0000000 )
                  (  0.0000000  0.0000000  1.0000000 )


      isym =  5     inv. 180 deg rotation - cart. axis [0,1,0]   

 cryst.   s( 5) = (     1          0          0      )
                  (     0         -1          0      )
                  (     0          0          1      )

 cart.    s( 5) = (  1.0000000  0.0000000  0.0000000 )
                  (  0.0000000 -1.0000000  0.0000000 )
                  (  0.0000000  0.0000000  1.0000000 )


      isym =  6     inv. 180 deg rotation - cart. axis [1,0,0]   

 cryst.   s( 6) = (    -1          0          0      )
                  (     0          1          0      )
                  (     0          0          1      )

 cart.    s( 6) = ( -1.0000000  0.0000000  0.0000000 )
                  (  0.0000000  1.0000000  0.0000000 )
                  (  0.0000000  0.0000000  1.0000000 )


      isym =  7     inv. 180 deg rotation - cart. axis [1,1,0]   

 cryst.   s( 7) = (     0         -1          0      )
                  (    -1          0          0      )
                  (     0          0          1      )

 cart.    s( 7) = (  0.0000000 -1.0000000  0.0000000 )
                  ( -1.0000000  0.0000000  0.0000000 )
                  (  0.0000000  0.0000000  1.0000000 )


      isym =  8     inv. 180 deg rotation - cart. axis [1,-1,0]  

 cryst.   s( 8) = (     0          1          0      )
                  (     1          0          0      )
                  (     0          0          1      )

 cart.    s( 8) = (  0.0000000  1.0000000  0.0000000 )
                  (  1.0000000  0.0000000  0.0000000 )
                  (  0.0000000  0.0000000  1.0000000 )


     point group C_4v (4mm) 
     there are  5 classes
     the character table:

       E     2C4   C2    2s_v  2s_d 
A_1    1.00  1.00  1.00  1.00  1.00
A_2    1.00  1.00  1.00 -1.00 -1.00
B_1    1.00 -1.00  1.00  1.00 -1.00
B_2    1.00 -1.00  1.00 -1.00  1.00
E      2.00  0.00 -2.00  0.00  0.00

     the symmetry operations in each class and the name of the first element:

     E        1
          identity                                               
     2C4      3    4
           90 deg rotation - cart. axis [0,0,-1]                 
     C2       2
          180 deg rotation - cart. axis [0,0,1]                  
     2s_v     5    6
          inv. 180 deg rotation - cart. axis [0,1,0]             
     2s_d     7    8
          inv. 180 deg rotation - cart. axis [1,1,0]             

   Cartesian axes

     site n.     atom                  positions (alat units)
         1           Au  tau(   1) = (   0.0000000   0.0000000   0.0000000  )
         2           Au  tau(   2) = (   0.0000000   0.2499999   0.2499999  )
         3           Au  tau(   3) = (   0.2499999   0.0000000   0.2499999  )
         4           Au  tau(   4) = (   0.2499999   0.2499999   0.0000000  )
         5           Au  tau(   5) = (   0.0000000   0.4999998   0.0000000  )
         6           Au  tau(   6) = (   0.0000000   0.7499996   0.2499999  )
         7           Au  tau(   7) = (   0.2499999   0.4999998   0.2499999  )
         8           Au  tau(   8) = (   0.2499999   0.7499996   0.0000000  )
         9           Au  tau(   9) = (   0.4999998   0.0000000   0.0000000  )
        10           Au  tau(  10) = (   0.4999998   0.2499999   0.2499999  )
        11           Au  tau(  11) = (   0.7499996   0.0000000   0.2499999  )
        12           Au  tau(  12) = (   0.7499996   0.2499999   0.0000000  )
        13           Au  tau(  13) = (   0.4999998   0.4999998   0.0000000  )
        14           Au  tau(  14) = (   0.4999998   0.7499996   0.2499999  )
        15           Au  tau(  15) = (   0.7499996   0.4999998   0.2499999  )
        16           Au  tau(  16) = (   0.7499996   0.7499996   0.0000000  )

   Crystallographic axes

     site n.     atom                  positions (cryst. coord.)
         1           Au  tau(   1) = (  0.0000000  0.0000000  0.0000000  )
         2           Au  tau(   2) = (  0.0000000  0.2499999  0.1471739  )
         3           Au  tau(   3) = (  0.2499999  0.0000000  0.1471739  )
         4           Au  tau(   4) = (  0.2499999  0.2499999  0.0000000  )
         5           Au  tau(   5) = (  0.0000000  0.4999998  0.0000000  )
         6           Au  tau(   6) = (  0.0000000  0.7499996  0.1471739  )
         7           Au  tau(   7) = (  0.2499999  0.4999998  0.1471739  )
         8           Au  tau(   8) = (  0.2499999  0.7499996  0.0000000  )
         9           Au  tau(   9) = (  0.4999998  0.0000000  0.0000000  )
        10           Au  tau(  10) = (  0.4999998  0.2499999  0.1471739  )
        11           Au  tau(  11) = (  0.7499996  0.0000000  0.1471739  )
        12           Au  tau(  12) = (  0.7499996  0.2499999  0.0000000  )
        13           Au  tau(  13) = (  0.4999998  0.4999998  0.0000000  )
        14           Au  tau(  14) = (  0.4999998  0.7499996  0.1471739  )
        15           Au  tau(  15) = (  0.7499996  0.4999998  0.1471739  )
        16           Au  tau(  16) = (  0.7499996  0.7499996  0.0000000  )

     number of k points=     6  Gaussian smearing, width (Ry)=  0.0030
                       cart. coord. in units 2pi/alat
        k(    1) = (   0.0000000   0.0000000   0.0000000), wk =   0.0800000
        k(    2) = (   0.0000000   0.2000000   0.0000000), wk =   0.3200000
        k(    3) = (   0.0000000   0.4000000   0.0000000), wk =   0.3200000
        k(    4) = (   0.2000000   0.2000000   0.0000000), wk =   0.3200000
        k(    5) = (   0.2000000   0.4000000   0.0000000), wk =   0.6400000
        k(    6) = (   0.4000000   0.4000000   0.0000000), wk =   0.3200000

                       cryst. coord.
        k(    1) = (   0.0000000   0.0000000   0.0000000), wk =   0.0800000
        k(    2) = (   0.0000000   0.2000000   0.0000000), wk =   0.3200000
        k(    3) = (   0.0000000   0.4000000   0.0000000), wk =   0.3200000
        k(    4) = (   0.2000000   0.2000000   0.0000000), wk =   0.3200000
        k(    5) = (   0.2000000   0.4000000   0.0000000), wk =   0.6400000
        k(    6) = (   0.4000000   0.4000000   0.0000000), wk =   0.3200000

     Dense  grid:   583927 G-vectors     FFT dimensions: (  90,  90, 150)

     Smooth grid:   147845 G-vectors     FFT dimensions: (  60,  60,  96)

     Dynamical RAM for                 wfc:       0.93 MB

     Dynamical RAM for     wfc (w. buffer):       6.53 MB

     Dynamical RAM for           str. fact:       0.28 MB

     Dynamical RAM for           local pot:       0.00 MB

     Dynamical RAM for          nlocal pot:       3.52 MB

     Dynamical RAM for                qrad:       2.60 MB

     Dynamical RAM for          rho,v,vnew:       1.76 MB

     Dynamical RAM for               rhoin:       0.59 MB

     Dynamical RAM for            rho*nmix:       4.46 MB

     Dynamical RAM for           G-vectors:       1.08 MB

     Dynamical RAM for          h,s,v(r/c):       0.08 MB

     Dynamical RAM for          <psi|beta>:       0.65 MB

     Dynamical RAM for                 psi:       1.87 MB

     Dynamical RAM for                hpsi:       1.87 MB

     Dynamical RAM for                spsi:       1.87 MB

     Dynamical RAM for      wfcinit/wfcrot:       3.01 MB

     Dynamical RAM for           addusdens:     102.48 MB

     Dynamical RAM for          addusforce:     111.09 MB

     Dynamical RAM for         addusstress:     105.54 MB

     Estimated static dynamical RAM per process >      22.92 MB

     Estimated max dynamical RAM per process >     134.01 MB

     Estimated total dynamical RAM >       4.19 GB

     Check: negative core charge=   -0.000004

     Initial potential from superposition of free atoms

     starting charge  175.99804, renormalised to  176.00000

     negative rho (up, down):  2.645E-05 0.000E+00
     Starting wfcs are  144 randomized atomic wfcs

     total cpu time spent up to now is        1.7 secs

     Self-consistent Calculation

     iteration #  1     ecut=    30.00 Ry     beta= 0.30
     Davidson diagonalization with overlap
     ethr =  1.00E-02,  avg # of iterations =  2.8

     Threshold (ethr) on eigenvalues was too large:
     Diagonalizing with lowered threshold

     Davidson diagonalization with overlap
     ethr =  3.92E-04,  avg # of iterations =  2.0

     negative rho (up, down):  1.627E-05 0.000E+00

     total cpu time spent up to now is        5.2 secs

     total energy              =   -1839.11730072 Ry
     estimated scf accuracy    <       0.79507739 Ry

     iteration #  2     ecut=    30.00 Ry     beta= 0.30
     Davidson diagonalization with overlap
     ethr =  4.52E-04,  avg # of iterations =  2.0

     negative rho (up, down):  2.873E-05 0.000E+00

     total cpu time spent up to now is        7.1 secs

     total energy              =   -1839.17196621 Ry
     estimated scf accuracy    <       0.08706523 Ry

     iteration #  3     ecut=    30.00 Ry     beta= 0.30
     Davidson diagonalization with overlap
     ethr =  4.95E-05,  avg # of iterations =  3.5

     negative rho (up, down):  4.054E-05 0.000E+00

     total cpu time spent up to now is        9.5 secs

     total energy              =   -1839.19577275 Ry
     estimated scf accuracy    <       0.00881608 Ry

     iteration #  4     ecut=    30.00 Ry     beta= 0.30
     Davidson diagonalization with overlap
     c_bands:  1 eigenvalues not converged
     ethr =  5.01E-06,  avg # of iterations = 10.3

     negative rho (up, down):  5.841E-05 0.000E+00

     total cpu time spent up to now is       12.2 secs

     total energy              =   -1839.19618241 Ry
     estimated scf accuracy    <       0.00326149 Ry

     iteration #  5     ecut=    30.00 Ry     beta= 0.30
     Davidson diagonalization with overlap
     ethr =  1.85E-06,  avg # of iterations =  2.0

     negative rho (up, down):  6.436E-05 0.000E+00

     total cpu time spent up to now is       14.0 secs

     total energy              =   -1839.19630867 Ry
     estimated scf accuracy    <       0.00038214 Ry

     iteration #  6     ecut=    30.00 Ry     beta= 0.30
     Davidson diagonalization with overlap
     ethr =  2.17E-07,  avg # of iterations =  2.8

     negative rho (up, down):  6.666E-05 0.000E+00

     total cpu time spent up to now is       16.3 secs

     total energy              =   -1839.19641245 Ry
     estimated scf accuracy    <       0.00001193 Ry

     iteration #  7     ecut=    30.00 Ry     beta= 0.30
     Davidson diagonalization with overlap
     ethr =  6.78E-09,  avg # of iterations =  5.8

     negative rho (up, down):  6.912E-05 0.000E+00

     total cpu time spent up to now is       19.4 secs

     total energy              =   -1839.19642115 Ry
     estimated scf accuracy    <       0.00001403 Ry

     iteration #  8     ecut=    30.00 Ry     beta= 0.30
     Davidson diagonalization with overlap
     ethr =  6.78E-09,  avg # of iterations =  1.8

     negative rho (up, down):  7.108E-05 0.000E+00

     total cpu time spent up to now is       21.1 secs

     total energy              =   -1839.19642082 Ry
     estimated scf accuracy    <       0.00000334 Ry

     iteration #  9     ecut=    30.00 Ry     beta= 0.30
     Davidson diagonalization with overlap
     ethr =  1.90E-09,  avg # of iterations =  3.7

     negative rho (up, down):  7.229E-05 0.000E+00

     total cpu time spent up to now is       23.4 secs

     total energy              =   -1839.19642251 Ry
     estimated scf accuracy    <       0.00000101 Ry

     iteration # 10     ecut=    30.00 Ry     beta= 0.30
     Davidson diagonalization with overlap
     ethr =  5.71E-10,  avg # of iterations =  2.0

     negative rho (up, down):  7.315E-05 0.000E+00

     total cpu time spent up to now is       25.3 secs

     total energy              =   -1839.19642250 Ry
     estimated scf accuracy    <       0.00000130 Ry

     iteration # 11     ecut=    30.00 Ry     beta= 0.30
     Davidson diagonalization with overlap
     ethr =  5.71E-10,  avg # of iterations =  1.0

     negative rho (up, down):  7.534E-05 0.000E+00

     total cpu time spent up to now is       26.9 secs

     End of self-consistent calculation

          k = 0.0000 0.0000 0.0000 ( 18535 PWs)   bands (ev):

    -6.7398  -5.0284  -4.8744  -4.8744  -4.8744  -4.8744  -4.7919  -4.7919
    -4.7919  -4.7919  -4.7792  -4.6367  -4.6366  -4.3212  -4.3212  -3.9460
    -3.9460  -3.9460  -3.9460  -3.8400  -3.7711  -3.7711  -3.7711  -3.7711
    -3.4519  -3.4519  -3.4519  -3.4519  -3.3116  -3.3116  -3.3116  -3.3116
    -2.9089  -2.9089  -2.9088  -2.9088  -2.8926  -2.8926  -2.8926  -2.8926
    -2.8143  -2.8143  -2.8143  -2.8143  -2.7505  -2.7505  -2.7505  -2.7505
    -2.6906  -2.6906  -2.4906  -2.2640  -2.2640  -2.2639  -2.2639  -2.0965
    -2.0965  -2.0965  -2.0965  -2.0295  -2.0295  -2.0172  -2.0172  -2.0172
    -2.0172  -1.7437  -1.6418  -1.6418  -1.4690  -1.4690  -1.4689  -1.4689
    -1.4650  -1.4650  -1.4650  -1.4649  -1.4581  -1.4581  -1.4580  -1.4580
    -1.3068  -1.3068  -1.2234  -1.2119  -0.6612  -0.6612   0.9328   0.9329
     0.9329   0.9329   1.0811   1.0811   1.0811   1.0811   2.2023   3.3528
     3.3528   3.3529   3.3529   4.0376   4.0376   5.1884   5.4652   5.4652
     5.4654   5.4654

     occupation numbers 
     1.0000   1.0000   1.0000   1.0000   1.0000   1.0000   1.0000   1.0000
     1.0000   1.0000   1.0000   1.0000   1.0000   1.0000   1.0000   1.0000
     1.0000   1.0000   1.0000   1.0000   1.0000   1.0000   1.0000   1.0000
     1.0000   1.0000   1.0000   1.0000   1.0000   1.0000   1.0000   1.0000
     1.0000   1.0000   1.0000   1.0000   1.0000   1.0000   1.0000   1.0000
     1.0000   1.0000   1.0000   1.0000   1.0000   1.0000   1.0000   1.0000
     1.0000   1.0000   1.0000   1.0000   1.0000   1.0000   1.0000   1.0000
     1.0000   1.0000   1.0000   1.0000   1.0000   1.0000   1.0000   1.0000
     1.0000   1.0000   1.0000   1.0000   1.0000   1.0000   1.0000   1.0000
     1.0000   1.0000   1.0000   1.0000   1.0000   1.0000   1.0000   1.0000
     1.0000   1.0000   1.0000   1.0000   1.0000   1.0000   0.0000   0.0000
     0.0000   0.0000   0.0000   0.0000   0.0000   0.0000   0.0000   0.0000
     0.0000   0.0000   0.0000   0.0000   0.0000   0.0000   0.0000   0.0000
     0.0000   0.0000

          k = 0.0000 0.2000 0.0000 ( 18459 PWs)   bands (ev):

    -6.6373  -5.3037  -4.9446  -4.9100  -4.9100  -4.8050  -4.8049  -4.7654
    -4.7654  -4.7288  -4.5956  -4.5773  -4.5075  -4.2963  -4.2941  -4.0957
    -4.0787  -4.0787  -3.9851  -3.9490  -3.9085  -3.7919  -3.7374  -3.7374
    -3.6840  -3.5307  -3.5307  -3.3385  -3.3385  -3.2899  -3.2899  -3.1100
    -3.0388  -3.0184  -2.9939  -2.9939  -2.9128  -2.8827  -2.8827  -2.8743
    -2.8743  -2.8468  -2.8468  -2.7478  -2.7240  -2.6890  -2.6890  -2.5745
    -2.5184  -2.4900  -2.4463  -2.3952  -2.1188  -2.1050  -2.1050  -2.0774
    -2.0639  -2.0639  -2.0387  -2.0387  -2.0319  -1.9445  -1.9399  -1.9399
    -1.9132  -1.8355  -1.6686  -1.6525  -1.5735  -1.5735  -1.5726  -1.5726
    -1.5685  -1.4466  -1.4453  -1.4453  -1.4362  -1.3704  -1.3239  -1.3239
    -1.3170  -1.2767  -1.0810  -1.0283  -0.8698  -0.7618   0.0103   0.0104
     0.3530   1.1558   1.1558   1.9618   2.0642   2.0642   2.4020   2.5072
     2.5072   2.9232   4.3322   4.3523   4.3523   4.5139   5.2823   5.2965
     5.5197   5.5199

     occupation numbers 
     1.0000   1.0000   1.0000   1.0000   1.0000   1.0000   1.0000   1.0000
     1.0000   1.0000   1.0000   1.0000   1.0000   1.0000   1.0000   1.0000
     1.0000   1.0000   1.0000   1.0000   1.0000   1.0000   1.0000   1.0000
     1.0000   1.0000   1.0000   1.0000   1.0000   1.0000   1.0000   1.0000
     1.0000   1.0000   1.0000   1.0000   1.0000   1.0000   1.0000   1.0000
     1.0000   1.0000   1.0000   1.0000   1.0000   1.0000   1.0000   1.0000
     1.0000   1.0000   1.0000   1.0000   1.0000   1.0000   1.0000   1.0000
     1.0000   1.0000   1.0000   1.0000   1.0000   1.0000   1.0000   1.0000
     1.0000   1.0000   1.0000   1.0000   1.0000   1.0000   1.0000   1.0000
     1.0000   1.0000   1.0000   1.0000   1.0000   1.0000   1.0000   1.0000
     1.0000   1.0000   1.0000   1.0000   1.0000   1.0000   1.0000   1.0000
     0.4766   0.0000   0.0000   0.0000   0.0000   0.0000   0.0000   0.0000
     0.0000   0.0000   0.0000   0.0000   0.0000   0.0000   0.0000   0.0000
     0.0000   0.0000

          k = 0.0000 0.4000 0.0000 ( 18418 PWs)   bands (ev):

    -6.3376  -5.8693  -4.8893  -4.8892  -4.8430  -4.8429  -4.7031  -4.5814
    -4.5806  -4.5806  -4.5029  -4.4451  -4.4091  -4.3530  -4.3395  -4.3352
    -4.3352  -4.2168  -4.2028  -4.1643  -4.1029  -3.9958  -3.6656  -3.6656
    -3.6494  -3.5933  -3.5933  -3.4180  -3.2045  -3.2045  -3.1953  -3.1953
    -3.0306  -3.0306  -3.0289  -3.0289  -3.0116  -3.0116  -2.9866  -2.9866
    -2.9863  -2.9367  -2.8699  -2.8156  -2.5552  -2.4947  -2.4261  -2.4012
    -2.4012  -2.3451  -2.1941  -2.1723  -2.1723  -2.1478  -2.1026  -2.0528
    -1.9650  -1.9564  -1.9022  -1.9022  -1.8292  -1.8292  -1.8256  -1.8256
    -1.7700  -1.7654  -1.7361  -1.7361  -1.6883  -1.6617  -1.6557  -1.6557
    -1.5615  -1.5333  -1.5333  -1.4830  -1.4312  -1.3891  -1.3704  -1.3461
    -1.2941  -1.1017  -1.1017  -1.0160  -0.7373  -0.6768  -0.6768  -0.2503
    -0.0261   1.3614   1.3951   1.3951   1.8300   1.8301   2.9277   3.0123
     3.4370   3.4371   3.6573   4.1888   4.9615   4.9615   5.0894   5.2698
     5.2699   5.5950

     occupation numbers 
     1.0000   1.0000   1.0000   1.0000   1.0000   1.0000   1.0000   1.0000
     1.0000   1.0000   1.0000   1.0000   1.0000   1.0000   1.0000   1.0000
     1.0000   1.0000   1.0000   1.0000   1.0000   1.0000   1.0000   1.0000
     1.0000   1.0000   1.0000   1.0000   1.0000   1.0000   1.0000   1.0000
     1.0000   1.0000   1.0000   1.0000   1.0000   1.0000   1.0000   1.0000
     1.0000   1.0000   1.0000   1.0000   1.0000   1.0000   1.0000   1.0000
     1.0000   1.0000   1.0000   1.0000   1.0000   1.0000   1.0000   1.0000
     1.0000   1.0000   1.0000   1.0000   1.0000   1.0000   1.0000   1.0000
     1.0000   1.0000   1.0000   1.0000   1.0000   1.0000   1.0000   1.0000
     1.0000   1.0000   1.0000   1.0000   1.0000   1.0000   1.0000   1.0000
     1.0000   1.0000   1.0000   1.0000   1.0000   1.0000   1.0000   1.0000
     1.0000   0.0000   0.0000   0.0000   0.0000   0.0000   0.0000   0.0000
     0.0000   0.0000   0.0000   0.0000   0.0000   0.0000   0.0000   0.0000
     0.0000   0.0000

          k = 0.2000 0.2000 0.0000 ( 18463 PWs)   bands (ev):

    -6.5397  -5.2868  -5.2868  -5.0592  -4.9001  -4.7521  -4.7156  -4.7156
    -4.6450  -4.5382  -4.5382  -4.5153  -4.5153  -4.2798  -4.2798  -4.2717
    -4.2717  -4.0681  -4.0681  -3.8507  -3.8507  -3.8099  -3.8099  -3.7427
    -3.6540  -3.6540  -3.6179  -3.4028  -3.4028  -3.2564  -3.0993  -3.0993
    -3.0650  -3.0650  -3.0400  -3.0400  -2.9132  -2.9132  -2.8932  -2.8932
    -2.8649  -2.7823  -2.7794  -2.7794  -2.7223  -2.6778  -2.5732  -2.5732
    -2.4911  -2.3860  -2.3860  -2.3554  -2.3554  -2.3020  -2.0754  -2.0754
    -2.0508  -2.0131  -2.0131  -1.8945  -1.8760  -1.8760  -1.8751  -1.8751
    -1.8564  -1.8564  -1.6968  -1.6968  -1.6618  -1.6618  -1.6132  -1.6132
    -1.5834  -1.5172  -1.4750  -1.4750  -1.3589  -1.3589  -1.3342  -1.3087
    -1.2541  -0.9818  -0.9557  -0.9557  -0.8955  -0.8106  -0.8106   0.4066
     0.4066   1.1628   1.1628   1.5819   2.0665   2.0665   2.5847   3.1696
     3.1696   3.1991   3.5967   3.5967   4.5991   4.5991   4.9771   5.3759
     5.7422   5.7988

     occupation numbers 
     1.0000   1.0000   1.0000   1.0000   1.0000   1.0000   1.0000   1.0000
     1.0000   1.0000   1.0000   1.0000   1.0000   1.0000   1.0000   1.0000
     1.0000   1.0000   1.0000   1.0000   1.0000   1.0000   1.0000   1.0000
     1.0000   1.0000   1.0000   1.0000   1.0000   1.0000   1.0000   1.0000
     1.0000   1.0000   1.0000   1.0000   1.0000   1.0000   1.0000   1.0000
     1.0000   1.0000   1.0000   1.0000   1.0000   1.0000   1.0000   1.0000
     1.0000   1.0000   1.0000   1.0000   1.0000   1.0000   1.0000   1.0000
     1.0000   1.0000   1.0000   1.0000   1.0000   1.0000   1.0000   1.0000
     1.0000   1.0000   1.0000   1.0000   1.0000   1.0000   1.0000   1.0000
     1.0000   1.0000   1.0000   1.0000   1.0000   1.0000   1.0000   1.0000
     1.0000   1.0000   1.0000   1.0000   1.0000   1.0000   1.0000   0.0277
     0.0277   0.0000   0.0000   0.0000   0.0000   0.0000   0.0000   0.0000
     0.0000   0.0000   0.0000   0.0000   0.0000   0.0000   0.0000   0.0000
     0.0000   0.0000

          k = 0.2000 0.4000 0.0000 ( 18487 PWs)   bands (ev):

    -6.2552  -5.8144  -5.2399  -5.1660  -4.7646  -4.6629  -4.6315  -4.5542
    -4.5458  -4.4993  -4.4877  -4.4577  -4.4267  -4.4115  -4.3795  -4.2558
    -4.1986  -4.1840  -4.1788  -4.0850  -4.0612  -3.9660  -3.7138  -3.7107
    -3.6670  -3.5971  -3.5499  -3.5333  -3.3867  -3.3660  -3.1562  -3.1168
    -3.1055  -3.1009  -3.0897  -3.0081  -2.9947  -2.9406  -2.8675  -2.8455
    -2.8136  -2.8056  -2.7389  -2.7341  -2.7095  -2.5691  -2.5306  -2.5014
    -2.4045  -2.4038  -2.2693  -2.1960  -2.1884  -2.1558  -2.1482  -2.1143
    -2.1005  -2.0802  -1.9341  -1.8708  -1.8494  -1.8331  -1.7960  -1.7762
    -1.7749  -1.7615  -1.7488  -1.7429  -1.7343  -1.6918  -1.6605  -1.6517
    -1.6460  -1.6256  -1.5656  -1.5406  -1.4387  -1.3629  -1.3459  -1.3044
    -1.2794  -1.2558  -1.2490  -1.1546  -0.6729  -0.2960  -0.2007   0.2600
     0.3740   0.5904   0.9635   1.6393   2.3739   2.4737   2.9827   3.0755
     3.1010   3.6243   3.7715   4.1225   4.4690   4.8268   4.8737   4.9673
     5.0244   5.0738

     occupation numbers 
     1.0000   1.0000   1.0000   1.0000   1.0000   1.0000   1.0000   1.0000
     1.0000   1.0000   1.0000   1.0000   1.0000   1.0000   1.0000   1.0000
     1.0000   1.0000   1.0000   1.0000   1.0000   1.0000   1.0000   1.0000
     1.0000   1.0000   1.0000   1.0000   1.0000   1.0000   1.0000   1.0000
     1.0000   1.0000   1.0000   1.0000   1.0000   1.0000   1.0000   1.0000
     1.0000   1.0000   1.0000   1.0000   1.0000   1.0000   1.0000   1.0000
     1.0000   1.0000   1.0000   1.0000   1.0000   1.0000   1.0000   1.0000
     1.0000   1.0000   1.0000   1.0000   1.0000   1.0000   1.0000   1.0000
     1.0000   1.0000   1.0000   1.0000   1.0000   1.0000   1.0000   1.0000
     1.0000   1.0000   1.0000   1.0000   1.0000   1.0000   1.0000   1.0000
     1.0000   1.0000   1.0000   1.0000   1.0000   1.0000   1.0000   0.9992
     0.2158   0.0000   0.0000   0.0000   0.0000   0.0000   0.0000   0.0000
     0.0000   0.0000   0.0000   0.0000   0.0000   0.0000   0.0000   0.0000
     0.0000   0.0000

          k = 0.4000 0.4000 0.0000 ( 18510 PWs)   bands (ev):

    -6.0182  -5.6598  -5.6598  -5.4328  -4.7610  -4.6985  -4.6632  -4.6632
    -4.4208  -4.4208  -4.4027  -4.4027  -4.3534  -4.3534  -4.2712  -4.2712
    -4.1160  -4.0912  -4.0912  -3.9112  -3.9112  -3.8596  -3.8596  -3.8354
    -3.8354  -3.7149  -3.6748  -3.6748  -3.4450  -3.2327  -3.2327  -3.1366
    -3.1331  -3.1191  -3.1191  -2.9457  -2.9456  -2.9082  -2.7060  -2.7060
    -2.6987  -2.6785  -2.6785  -2.6623  -2.5986  -2.5986  -2.5736  -2.5736
    -2.5234  -2.5007  -2.4032  -2.3771  -2.3771  -2.2990  -2.2990  -2.1959
    -2.0810  -2.0810  -1.9715  -1.9715  -1.9125  -1.9125  -1.8979  -1.8979
    -1.8502  -1.8502  -1.8399  -1.8272  -1.6151  -1.6151  -1.6114  -1.6047
    -1.6047  -1.5803  -1.5803  -1.4915  -1.4406  -1.4406  -1.3791  -1.3791
    -1.2404  -1.2372  -1.2372  -1.2114  -0.4456  -0.0231  -0.0231   0.3486
     0.8899   0.8899   1.6535   1.6535   2.2713   2.2713   2.9167   2.9167
     3.4872   3.9794   3.9794   4.0943   4.0943   4.2925   4.2925   4.5688
     5.2845   5.2846

     occupation numbers 
     1.0000   1.0000   1.0000   1.0000   1.0000   1.0000   1.0000   1.0000
     1.0000   1.0000   1.0000   1.0000   1.0000   1.0000   1.0000   1.0000
     1.0000   1.0000   1.0000   1.0000   1.0000   1.0000   1.0000   1.0000
     1.0000   1.0000   1.0000   1.0000   1.0000   1.0000   1.0000   1.0000
     1.0000   1.0000   1.0000   1.0000   1.0000   1.0000   1.0000   1.0000
     1.0000   1.0000   1.0000   1.0000   1.0000   1.0000   1.0000   1.0000
     1.0000   1.0000   1.0000   1.0000   1.0000   1.0000   1.0000   1.0000
     1.0000   1.0000   1.0000   1.0000   1.0000   1.0000   1.0000   1.0000
     1.0000   1.0000   1.0000   1.0000   1.0000   1.0000   1.0000   1.0000
     1.0000   1.0000   1.0000   1.0000   1.0000   1.0000   1.0000   1.0000
     1.0000   1.0000   1.0000   1.0000   1.0000   1.0000   1.0000   0.5379
     0.0000   0.0000   0.0000   0.0000   0.0000   0.0000   0.0000   0.0000
     0.0000   0.0000   0.0000   0.0000   0.0000   0.0000   0.0000   0.0000
     0.0000   0.0000

     the Fermi energy is     0.3513 ev

!    total energy              =   -1839.19642175 Ry
     estimated scf accuracy    <       0.00000097 Ry
     smearing contrib. (-TS)   =      -0.00102756 Ry
     internal energy E=F+TS    =   -1839.19539419 Ry

     The total energy is F=E-TS. E is the sum of the following terms:
     one-electron contribution =   -3564.86888770 Ry
     hartree contribution      =    1910.14629518 Ry
     xc contribution           =    -994.36822619 Ry
     ewald contribution        =     809.89542452 Ry

     convergence has been achieved in  11 iterations

     negative rho (up, down):  7.534E-05 0.000E+00

     Forces acting on atoms (cartesian axes, Ry/au):

     atom    1 type  1   force =     0.00000000    0.00000000    0.01107581
     atom    2 type  1   force =     0.00000000    0.00001433   -0.01104606
     atom    3 type  1   force =     0.00001433    0.00000000   -0.01104606
     atom    4 type  1   force =     0.00001426    0.00001426    0.01101057
     atom    5 type  1   force =     0.00000000    0.00000000    0.01109274
     atom    6 type  1   force =     0.00000000   -0.00001433   -0.01104606
     atom    7 type  1   force =     0.00001464    0.00000000   -0.01105287
     atom    8 type  1   force =     0.00001426   -0.00001426    0.01101057
     atom    9 type  1   force =     0.00000000    0.00000000    0.01109274
     atom   10 type  1   force =     0.00000000    0.00001464   -0.01105287
     atom   11 type  1   force =    -0.00001433    0.00000000   -0.01104606
     atom   12 type  1   force =    -0.00001426    0.00001426    0.01101057
     atom   13 type  1   force =     0.00000000    0.00000000    0.01109217
     atom   14 type  1   force =     0.00000000   -0.00001464   -0.01105287
     atom   15 type  1   force =    -0.00001464    0.00000000   -0.01105287
     atom   16 type  1   force =    -0.00001426   -0.00001426    0.01101057
     The non-local contrib.  to forces
     atom    1 type  1   force =     0.00000000    0.00000000    0.01597538
     atom    2 type  1   force =    -0.00000000    0.00001485   -0.01598052
     atom    3 type  1   force =     0.00001485    0.00000000   -0.01598052
     atom    4 type  1   force =     0.00001441    0.00001441    0.01599467
     atom    5 type  1   force =     0.00000000    0.00000000    0.01599631
     atom    6 type  1   force =     0.00000000   -0.00001485   -0.01598052
     atom    7 type  1   force =     0.00001522    0.00000000   -0.01598738
     atom    8 type  1   force =     0.00001441   -0.00001441    0.01599467
     atom    9 type  1   force =     0.00000000    0.00000000    0.01599631
     atom   10 type  1   force =     0.00000000    0.00001522   -0.01598738
     atom   11 type  1   force =    -0.00001485   -0.00000000   -0.01598052
     atom   12 type  1   force =    -0.00001441    0.00001441    0.01599467
     atom   13 type  1   force =     0.00000000    0.00000000    0.01599986
     atom   14 type  1   force =     0.00000000   -0.00001522   -0.01598738
     atom   15 type  1   force =    -0.00001522    0.00000000   -0.01598738
     atom   16 type  1   force =    -0.00001441   -0.00001441    0.01599467
     The ionic contribution  to forces
     atom    1 type  1   force =    -0.00003826   -0.00003826  -32.60809070
     atom    2 type  1   force =    -0.00003826   -0.00001489   32.60810726
     atom    3 type  1   force =    -0.00001489   -0.00003826   32.60810726
     atom    4 type  1   force =    -0.00001489   -0.00001489  -32.60812381
     atom    5 type  1   force =    -0.00003826    0.00001489  -32.60810726
     atom    6 type  1   force =    -0.00003826    0.00003826   32.60809070
     atom    7 type  1   force =    -0.00001489    0.00001489   32.60812381
     atom    8 type  1   force =    -0.00001489    0.00003826  -32.60810726
     atom    9 type  1   force =     0.00001489   -0.00003826  -32.60810726
     atom   10 type  1   force =     0.00001489   -0.00001489   32.60812381
     atom   11 type  1   force =     0.00003826   -0.00003826   32.60809070
     atom   12 type  1   force =     0.00003826   -0.00001489  -32.60810726
     atom   13 type  1   force =     0.00001489    0.00001489  -32.60812381
     atom   14 type  1   force =     0.00001489    0.00003826   32.60810726
     atom   15 type  1   force =     0.00003826    0.00001489   32.60810726
     atom   16 type  1   force =     0.00003826    0.00003826  -32.60809070
     The local contribution  to forces
     atom    1 type  1   force =    -0.00000000   -0.00000000   32.57719866
     atom    2 type  1   force =    -0.00000000    0.00003815  -32.57727556
     atom    3 type  1   force =     0.00003815   -0.00000000  -32.57727556
     atom    4 type  1   force =     0.00003808    0.00003808   32.57718883
     atom    5 type  1   force =    -0.00000000    0.00005003   32.57718801
     atom    6 type  1   force =    -0.00000000    0.00006192  -32.57727556
     atom    7 type  1   force =     0.00003649    0.00005003  -32.57727413
     atom    8 type  1   force =     0.00003808    0.00006198   32.57718883
     atom    9 type  1   force =     0.00005003   -0.00000000   32.57718801
     atom   10 type  1   force =     0.00005003    0.00003649  -32.57727413
     atom   11 type  1   force =     0.00006192   -0.00000000  -32.57727556
     atom   12 type  1   force =     0.00006198    0.00003808   32.57718883
     atom   13 type  1   force =     0.00005003    0.00005003   32.57718881
     atom   14 type  1   force =     0.00005003    0.00006357  -32.57727413
     atom   15 type  1   force =     0.00006357    0.00005003  -32.57727413
     atom   16 type  1   force =     0.00006198    0.00006198   32.57718883
     The core correction contribution to forces
     atom    1 type  1   force =     0.00000000    0.00000000    0.02703370
     atom    2 type  1   force =    -0.00000000    0.00001266   -0.02699458
     atom    3 type  1   force =     0.00001266   -0.00000000   -0.02699458
     atom    4 type  1   force =     0.00001241    0.00001241    0.02695079
     atom    5 type  1   force =     0.00000000    0.00001503    0.02702831
     atom    6 type  1   force =    -0.00000001    0.00001741   -0.02699459
     atom    7 type  1   force =     0.00001255    0.00001503   -0.02699284
     atom    8 type  1   force =     0.00001242    0.00001765    0.02695079
     atom    9 type  1   force =     0.00001503    0.00000000    0.02702831
     atom   10 type  1   force =     0.00001503    0.00001255   -0.02699284
     atom   11 type  1   force =     0.00001741   -0.00000001   -0.02699459
     atom   12 type  1   force =     0.00001765    0.00001242    0.02695079
     atom   13 type  1   force =     0.00001504    0.00001504    0.02702766
     atom   14 type  1   force =     0.00001503    0.00001753   -0.02699284
     atom   15 type  1   force =     0.00001753    0.00001503   -0.02699284
     atom   16 type  1   force =     0.00001765    0.00001765    0.02695080
     The Hubbard contrib.    to forces
     atom    1 type  1   force =     0.00000000    0.00000000    0.00000000
     atom    2 type  1   force =     0.00000000    0.00000000    0.00000000
     atom    3 type  1   force =     0.00000000    0.00000000    0.00000000
     atom    4 type  1   force =     0.00000000    0.00000000    0.00000000
     atom    5 type  1   force =     0.00000000    0.00000000    0.00000000
     atom    6 type  1   force =     0.00000000    0.00000000    0.00000000
     atom    7 type  1   force =     0.00000000    0.00000000    0.00000000
     atom    8 type  1   force =     0.00000000    0.00000000    0.00000000
     atom    9 type  1   force =     0.00000000    0.00000000    0.00000000
     atom   10 type  1   force =     0.00000000    0.00000000    0.00000000
     atom   11 type  1   force =     0.00000000    0.00000000    0.00000000
     atom   12 type  1   force =     0.00000000    0.00000000    0.00000000
     atom   13 type  1   force =     0.00000000    0.00000000    0.00000000
     atom   14 type  1   force =     0.00000000    0.00000000    0.00000000
     atom   15 type  1   force =     0.00000000    0.00000000    0.00000000
     atom   16 type  1   force =     0.00000000    0.00000000    0.00000000
     The SCF correction term to forces
     atom    1 type  1   force =     0.00000001    0.00000001   -0.00102839
     atom    2 type  1   force =     0.00000001    0.00004032    0.00111846
     atom    3 type  1   force =     0.00004032    0.00000001    0.00111846
     atom    4 type  1   force =     0.00004099    0.00004099   -0.00100364
     atom    5 type  1   force =     0.00000001   -0.00000001   -0.00099980
     atom    6 type  1   force =     0.00000001   -0.00004033    0.00111847
     atom    7 type  1   force =     0.00004202   -0.00000001    0.00109879
     atom    8 type  1   force =     0.00004099   -0.00004100   -0.00100364
     atom    9 type  1   force =    -0.00000001    0.00000001   -0.00099980
     atom   10 type  1   force =    -0.00000001    0.00004202    0.00109879
     atom   11 type  1   force =    -0.00004033    0.00000001    0.00111847
     atom   12 type  1   force =    -0.00004100    0.00004099   -0.00100364
     atom   13 type  1   force =    -0.00000001   -0.00000001   -0.00098749
     atom   14 type  1   force =    -0.00000001   -0.00004203    0.00109879
     atom   15 type  1   force =    -0.00004203   -0.00000001    0.00109879
     atom   16 type  1   force =    -0.00004100   -0.00004100   -0.00100364

     Total force =     0.044198     Total SCF correction =     0.004233


     Computing stress (Cartesian axis) and pressure


     negative rho (up, down):  7.534E-05 0.000E+00
          total   stress  (Ry/bohr**3)                   (kbar)     P=      -29.12
  -0.00026687   0.00000000   0.00000000          -39.26        0.00        0.00
   0.00000000  -0.00026687   0.00000000            0.00      -39.26        0.00
   0.00000000   0.00000000  -0.00006013            0.00        0.00       -8.85

     kinetic stress (kbar)   5914.23      0.00      0.00
                                0.00   5914.23      0.00
                                0.00      0.00   5996.40

     local   stress (kbar) -73191.80     -0.00      0.00
                               -0.00 -73191.80      0.00
                                0.00      0.00  86814.37

     nonloc. stress (kbar)  -3790.66      0.00      0.00
                                0.00  -3790.66      0.00
                                0.00      0.00  -3796.42

     hartree stress (kbar)  39682.55     -0.00      0.00
                               -0.00  39682.55      0.00
                                0.00      0.00 -37148.08

     exc-cor stress (kbar)  15342.98      0.00     -0.00
                                0.00  15342.98     -0.00
                               -0.00     -0.00  15336.52

     corecor stress (kbar) -17698.72     -0.00      0.00
                               -0.00 -17698.72      0.00
                                0.00      0.00 -17707.20

     ewald   stress (kbar)  33702.15     -0.00     -0.00
                               -0.00  33702.15     -0.00
                               -0.00     -0.00 -49504.44

     hubbard stress (kbar)      0.00      0.00      0.00
                                0.00      0.00      0.00
                                0.00      0.00      0.00

     DFT-D   stress (kbar)      0.00      0.00      0.00
                                0.00      0.00      0.00
                                0.00      0.00      0.00

     XDM     stress (kbar)      0.00      0.00      0.00
                                0.00      0.00      0.00
                                0.00      0.00      0.00

     dft-nl  stress (kbar)      0.00      0.00      0.00
                                0.00      0.00      0.00
                                0.00      0.00      0.00

     TS-vdW  stress (kbar)      0.00      0.00      0.00
                                0.00      0.00      0.00
                                0.00      0.00      0.00



     BFGS Geometry Optimization
     Energy error            =      0.0E+00
     Gradient error          =      1.1E-02

     number of scf cycles    =   1
     number of bfgs steps    =   0

     energy   new            =   -1839.1964217542 Ry

     new trust radius        =       0.0110927411 bohr
     new conv_thr            =       0.0000010000 Ry


ATOMIC_POSITIONS (angstrom)
Au            0.0000000000        0.0000000000        0.0058610680
Au            0.0000000000        2.0856515854        2.0797986742
Au            2.0856515854        0.0000000000        2.0797986742
Au            2.0856515456        2.0856515456        0.0058265426
Au            0.0000000000        4.1712880000        0.0058700258
Au            0.0000000000        6.2569244146        2.0797986742
Au            2.0856517477        4.1712880000        2.0797950721
Au            2.0856515456        6.2569244544        0.0058265426
Au            4.1712880000        0.0000000000        0.0058700258
Au            4.1712880000        2.0856517477        2.0797950721
Au            6.2569244146        0.0000000000        2.0797986742
Au            6.2569244544        2.0856515456        0.0058265426
Au            4.1712880000        4.1712880000        0.0058697251
Au            4.1712880000        6.2569242523        2.0797950721
Au            6.2569242523        4.1712880000        2.0797950721
Au            6.2569244544        6.2569244544        0.0058265426



     Writing output data file ./surface.save/
     NEW-OLD atomic charge density approx. for the potential

     Check: negative core charge=   -0.000004

     negative rho (up, down):  7.559E-05 0.000E+00

     total cpu time spent up to now is       32.5 secs

     Self-consistent Calculation

     iteration #  1     ecut=    30.00 Ry     beta= 0.30
     Davidson diagonalization with overlap
     ethr =  1.00E-06,  avg # of iterations =  7.0

     Threshold (ethr) on eigenvalues was too large:
     Diagonalizing with lowered threshold

     Davidson diagonalization with overlap
     ethr =  1.43E-08,  avg # of iterations =  5.3

     negative rho (up, down):  7.576E-05 0.000E+00

     total cpu time spent up to now is       39.6 secs

     total energy              =   -1839.19836015 Ry
     estimated scf accuracy    <       0.00002594 Ry

     iteration #  2     ecut=    30.00 Ry     beta= 0.30
     Davidson diagonalization with overlap
     ethr =  1.47E-08,  avg # of iterations =  1.0

     negative rho (up, down):  7.594E-05 0.000E+00

     total cpu time spent up to now is       41.2 secs

     total energy              =   -1839.19835799 Ry
     estimated scf accuracy    <       0.00000955 Ry

     iteration #  3     ecut=    30.00 Ry     beta= 0.30
     Davidson diagonalization with overlap
     ethr =  5.43E-09,  avg # of iterations =  2.0

     negative rho (up, down):  7.603E-05 0.000E+00

     total cpu time spent up to now is       43.2 secs

     total energy              =   -1839.19835905 Ry
     estimated scf accuracy    <       0.00000146 Ry

     iteration #  4     ecut=    30.00 Ry     beta= 0.30
     Davidson diagonalization with overlap
     ethr =  8.29E-10,  avg # of iterations =  2.0

     negative rho (up, down):  7.632E-05 0.000E+00

     total cpu time spent up to now is       45.2 secs

     End of self-consistent calculation

          k = 0.0000 0.0000 0.0000 ( 18535 PWs)   bands (ev):

    -6.7562  -5.0342  -4.8898  -4.8898  -4.8897  -4.8897  -4.8080  -4.8080
    -4.8080  -4.8080  -4.7896  -4.6482  -4.6479  -4.3389  -4.3389  -3.9651
    -3.9651  -3.9651  -3.9651  -3.8268  -3.7819  -3.7819  -3.7818  -3.7818
    -3.4442  -3.4441  -3.4440  -3.4440  -3.3246  -3.3246  -3.3246  -3.3246
    -2.9108  -2.9108  -2.9107  -2.9107  -2.9035  -2.9035  -2.9034  -2.9034
    -2.8277  -2.8276  -2.8275  -2.8275  -2.7452  -2.7452  -2.7451  -2.7451
    -2.7040  -2.7040  -2.4732  -2.2555  -2.2555  -2.2555  -2.2555  -2.0842
    -2.0842  -2.0842  -2.0842  -2.0194  -2.0194  -2.0193  -2.0193  -2.0183
    -2.0183  -1.7509  -1.6330  -1.6326  -1.4524  -1.4524  -1.4523  -1.4523
    -1.4523  -1.4523  -1.4521  -1.4521  -1.4476  -1.4476  -1.4476  -1.4476
    -1.2975  -1.2975  -1.2135  -1.2031  -0.6587  -0.6582   0.9330   0.9331
     0.9331   0.9331   1.1060   1.1060   1.1060   1.1060   2.2183   3.3663
     3.3664   3.3667   3.3667   4.0331   4.0331   5.1856   5.4768   5.4768
     5.4772   5.4772

     occupation numbers 
     1.0000   1.0000   1.0000   1.0000   1.0000   1.0000   1.0000   1.0000
     1.0000   1.0000   1.0000   1.0000   1.0000   1.0000   1.0000   1.0000
     1.0000   1.0000   1.0000   1.0000   1.0000   1.0000   1.0000   1.0000
     1.0000   1.0000   1.0000   1.0000   1.0000   1.0000   1.0000   1.0000
     1.0000   1.0000   1.0000   1.0000   1.0000   1.0000   1.0000   1.0000
     1.0000   1.0000   1.0000   1.0000   1.0000   1.0000   1.0000   1.0000
     1.0000   1.0000   1.0000   1.0000   1.0000   1.0000   1.0000   1.0000
     1.0000   1.0000   1.0000   1.0000   1.0000   1.0000   1.0000   1.0000
     1.0000   1.0000   1.0000   1.0000   1.0000   1.0000   1.0000   1.0000
     1.0000   1.0000   1.0000   1.0000   1.0000   1.0000   1.0000   1.0000
     1.0000   1.0000   1.0000   1.0000   1.0000   1.0000   0.0000   0.0000
     0.0000   0.0000   0.0000   0.0000   0.0000   0.0000   0.0000   0.0000
     0.0000   0.0000   0.0000   0.0000   0.0000   0.0000   0.0000   0.0000
     0.0000   0.0000

          k = 0.0000 0.2000 0.0000 ( 18459 PWs)   bands (ev):

    -6.6537  -5.3206  -4.9507  -4.9253  -4.9252  -4.8209  -4.8209  -4.7810
    -4.7809  -4.7393  -4.6070  -4.5887  -4.5215  -4.3138  -4.3119  -4.1111
    -4.0966  -4.0966  -4.0046  -3.9583  -3.9201  -3.7790  -3.7473  -3.7473
    -3.6985  -3.5263  -3.5263  -3.3289  -3.3289  -3.3029  -3.3029  -3.1018
    -3.0510  -3.0250  -3.0005  -3.0005  -2.9228  -2.8957  -2.8957  -2.8868
    -2.8868  -2.8387  -2.8387  -2.7607  -2.7371  -2.6956  -2.6956  -2.5796
    -2.5188  -2.4727  -2.4356  -2.3924  -2.1090  -2.0989  -2.0988  -2.0678
    -2.0678  -2.0662  -2.0270  -2.0269  -2.0214  -1.9404  -1.9404  -1.9377
    -1.9017  -1.8430  -1.6610  -1.6435  -1.5618  -1.5618  -1.5610  -1.5610
    -1.5591  -1.4326  -1.4326  -1.4285  -1.4219  -1.3616  -1.3095  -1.3095
    -1.3074  -1.2668  -1.0718  -1.0202  -0.8677  -0.7574   0.0124   0.0124
     0.3731   1.1801   1.1802   1.9898   2.0645   2.0645   2.4179   2.5231
     2.5232   2.9222   4.3285   4.3629   4.3630   4.5271   5.2797   5.3120
     5.5308   5.5312

     occupation numbers 
     1.0000   1.0000   1.0000   1.0000   1.0000   1.0000   1.0000   1.0000
     1.0000   1.0000   1.0000   1.0000   1.0000   1.0000   1.0000   1.0000
     1.0000   1.0000   1.0000   1.0000   1.0000   1.0000   1.0000   1.0000
     1.0000   1.0000   1.0000   1.0000   1.0000   1.0000   1.0000   1.0000
     1.0000   1.0000   1.0000   1.0000   1.0000   1.0000   1.0000   1.0000
     1.0000   1.0000   1.0000   1.0000   1.0000   1.0000   1.0000   1.0000
     1.0000   1.0000   1.0000   1.0000   1.0000   1.0000   1.0000   1.0000
     1.0000   1.0000   1.0000   1.0000   1.0000   1.0000   1.0000   1.0000
     1.0000   1.0000   1.0000   1.0000   1.0000   1.0000   1.0000   1.0000
     1.0000   1.0000   1.0000   1.0000   1.0000   1.0000   1.0000   1.0000
     1.0000   1.0000   1.0000   1.0000   1.0000   1.0000   1.0000   1.0000
     0.3672   0.0000   0.0000   0.0000   0.0000   0.0000   0.0000   0.0000
     0.0000   0.0000   0.0000   0.0000   0.0000   0.0000   0.0000   0.0000
     0.0000   0.0000

          k = 0.0000 0.4000 0.0000 ( 18418 PWs)   bands (ev):

    -6.3542  -5.8862  -4.9046  -4.9046  -4.8586  -4.8586  -4.7100  -4.5966
    -4.5966  -4.5924  -4.5145  -4.4575  -4.4206  -4.3654  -4.3519  -4.3519
    -4.3475  -4.2350  -4.2195  -4.1759  -4.1216  -4.0113  -3.6720  -3.6720
    -3.6374  -3.5941  -3.5940  -3.4076  -3.2171  -3.2171  -3.1867  -3.1867
    -3.0408  -3.0408  -3.0368  -3.0368  -3.0013  -3.0013  -2.9983  -2.9974
    -2.9973  -2.9471  -2.8821  -2.8279  -2.5487  -2.4776  -2.4272  -2.4078
    -2.4078  -2.3398  -2.1841  -2.1781  -2.1781  -2.1440  -2.1110  -2.0450
    -1.9649  -1.9523  -1.8908  -1.8908  -1.8273  -1.8272  -1.8212  -1.8212
    -1.7653  -1.7572  -1.7240  -1.7240  -1.6795  -1.6512  -1.6470  -1.6470
    -1.5534  -1.5221  -1.5220  -1.4752  -1.4211  -1.3768  -1.3694  -1.3355
    -1.2787  -1.0898  -1.0898  -1.0069  -0.7261  -0.6707  -0.6707  -0.2352
    -0.0225   1.3623   1.4176   1.4176   1.8498   1.8498   2.9433   3.0402
     3.4369   3.4369   3.6719   4.2130   4.9621   4.9622   5.0872   5.2777
     5.2777   5.6044

     occupation numbers 
     1.0000   1.0000   1.0000   1.0000   1.0000   1.0000   1.0000   1.0000
     1.0000   1.0000   1.0000   1.0000   1.0000   1.0000   1.0000   1.0000
     1.0000   1.0000   1.0000   1.0000   1.0000   1.0000   1.0000   1.0000
     1.0000   1.0000   1.0000   1.0000   1.0000   1.0000   1.0000   1.0000
     1.0000   1.0000   1.0000   1.0000   1.0000   1.0000   1.0000   1.0000
     1.0000   1.0000   1.0000   1.0000   1.0000   1.0000   1.0000   1.0000
     1.0000   1.0000   1.0000   1.0000   1.0000   1.0000   1.0000   1.0000
     1.0000   1.0000   1.0000   1.0000   1.0000   1.0000   1.0000   1.0000
     1.0000   1.0000   1.0000   1.0000   1.0000   1.0000   1.0000   1.0000
     1.0000   1.0000   1.0000   1.0000   1.0000   1.0000   1.0000   1.0000
     1.0000   1.0000   1.0000   1.0000   1.0000   1.0000   1.0000   1.0000
     1.0000   0.0000   0.0000   0.0000   0.0000   0.0000   0.0000   0.0000
     0.0000   0.0000   0.0000   0.0000   0.0000   0.0000   0.0000   0.0000
     0.0000   0.0000

          k = 0.2000 0.2000 0.0000 ( 18463 PWs)   bands (ev):

    -6.5561  -5.3035  -5.3035  -5.0742  -4.9069  -4.7672  -4.7315  -4.7314
    -4.6553  -4.5498  -4.5495  -4.5296  -4.5296  -4.2933  -4.2933  -4.2892
    -4.2892  -4.0865  -4.0865  -3.8626  -3.8626  -3.8209  -3.8209  -3.7301
    -3.6684  -3.6684  -3.6161  -3.3993  -3.3991  -3.2444  -3.0922  -3.0922
    -3.0747  -3.0745  -3.0446  -3.0446  -2.9271  -2.9271  -2.9003  -2.9003
    -2.8766  -2.7966  -2.7835  -2.7835  -2.7348  -2.6916  -2.5687  -2.5687
    -2.4739  -2.3775  -2.3775  -2.3518  -2.3518  -2.3076  -2.0654  -2.0653
    -2.0511  -2.0074  -2.0074  -1.9025  -1.8672  -1.8672  -1.8633  -1.8633
    -1.8572  -1.8571  -1.6893  -1.6890  -1.6531  -1.6531  -1.6012  -1.6009
    -1.5709  -1.5089  -1.4612  -1.4612  -1.3447  -1.3447  -1.3208  -1.2984
    -1.2439  -0.9722  -0.9517  -0.9512  -0.8911  -0.8029  -0.8029   0.4266
     0.4266   1.1636   1.1637   1.5996   2.0932   2.0932   2.6005   3.1697
     3.1698   3.1986   3.6116   3.6119   4.6119   4.6119   4.9843   5.3734
     5.7434   5.8005

     occupation numbers 
     1.0000   1.0000   1.0000   1.0000   1.0000   1.0000   1.0000   1.0000
     1.0000   1.0000   1.0000   1.0000   1.0000   1.0000   1.0000   1.0000
     1.0000   1.0000   1.0000   1.0000   1.0000   1.0000   1.0000   1.0000
     1.0000   1.0000   1.0000   1.0000   1.0000   1.0000   1.0000   1.0000
     1.0000   1.0000   1.0000   1.0000   1.0000   1.0000   1.0000   1.0000
     1.0000   1.0000   1.0000   1.0000   1.0000   1.0000   1.0000   1.0000
     1.0000   1.0000   1.0000   1.0000   1.0000   1.0000   1.0000   1.0000
     1.0000   1.0000   1.0000   1.0000   1.0000   1.0000   1.0000   1.0000
     1.0000   1.0000   1.0000   1.0000   1.0000   1.0000   1.0000   1.0000
     1.0000   1.0000   1.0000   1.0000   1.0000   1.0000   1.0000   1.0000
     1.0000   1.0000   1.0000   1.0000   1.0000   1.0000   1.0000   0.0141
     0.0141   0.0000   0.0000   0.0000   0.0000   0.0000   0.0000   0.0000
     0.0000   0.0000   0.0000   0.0000   0.0000   0.0000   0.0000   0.0000
     0.0000   0.0000

          k = 0.2000 0.4000 0.0000 ( 18487 PWs)   bands (ev):

    -6.2717  -5.8310  -5.2558  -5.1813  -4.7729  -4.6773  -4.6471  -4.5693
    -4.5560  -4.5130  -4.5043  -4.4696  -4.4396  -4.4217  -4.3913  -4.2732
    -4.2161  -4.1988  -4.1954  -4.0958  -4.0764  -3.9813  -3.7246  -3.7185
    -3.6696  -3.5854  -3.5636  -3.5400  -3.3980  -3.3559  -3.1435  -3.1195
    -3.1089  -3.0996  -3.0794  -3.0182  -2.9968  -2.9474  -2.8608  -2.8539
    -2.8264  -2.8193  -2.7503  -2.7470  -2.7233  -2.5619  -2.5388  -2.4844
    -2.4064  -2.4058  -2.2674  -2.1924  -2.1811  -2.1442  -2.1427  -2.1230
    -2.0948  -2.0804  -1.9309  -1.8647  -1.8456  -1.8217  -1.7854  -1.7656
    -1.7641  -1.7535  -1.7415  -1.7359  -1.7329  -1.6845  -1.6480  -1.6447
    -1.6350  -1.6175  -1.5574  -1.5318  -1.4281  -1.3593  -1.3329  -1.2918
    -1.2653  -1.2445  -1.2358  -1.1454  -0.6613  -0.2909  -0.1854   0.2633
     0.3767   0.6100   0.9824   1.6406   2.3971   2.4762   3.0002   3.0909
     3.1262   3.6318   3.7858   4.1238   4.4687   4.8384   4.8865   4.9839
     5.0269   5.0826

     occupation numbers 
     1.0000   1.0000   1.0000   1.0000   1.0000   1.0000   1.0000   1.0000
     1.0000   1.0000   1.0000   1.0000   1.0000   1.0000   1.0000   1.0000
     1.0000   1.0000   1.0000   1.0000   1.0000   1.0000   1.0000   1.0000
     1.0000   1.0000   1.0000   1.0000   1.0000   1.0000   1.0000   1.0000
     1.0000   1.0000   1.0000   1.0000   1.0000   1.0000   1.0000   1.0000
     1.0000   1.0000   1.0000   1.0000   1.0000   1.0000   1.0000   1.0000
     1.0000   1.0000   1.0000   1.0000   1.0000   1.0000   1.0000   1.0000
     1.0000   1.0000   1.0000   1.0000   1.0000   1.0000   1.0000   1.0000
     1.0000   1.0000   1.0000   1.0000   1.0000   1.0000   1.0000   1.0000
     1.0000   1.0000   1.0000   1.0000   1.0000   1.0000   1.0000   1.0000
     1.0000   1.0000   1.0000   1.0000   1.0000   1.0000   1.0000   0.9997
     0.3213   0.0000   0.0000   0.0000   0.0000   0.0000   0.0000   0.0000
     0.0000   0.0000   0.0000   0.0000   0.0000   0.0000   0.0000   0.0000
     0.0000   0.0000

          k = 0.4000 0.4000 0.0000 ( 18510 PWs)   bands (ev):

    -6.0346  -5.6760  -5.6760  -5.4484  -4.7704  -4.7110  -4.6743  -4.6743
    -4.4367  -4.4366  -4.4170  -4.4170  -4.3669  -4.3666  -4.2870  -4.2870
    -4.1268  -4.1068  -4.1066  -3.9247  -3.9247  -3.8739  -3.8739  -3.8463
    -3.8463  -3.7220  -3.6878  -3.6876  -3.4343  -3.2225  -3.2225  -3.1407
    -3.1244  -3.1244  -3.1242  -2.9428  -2.9424  -2.9141  -2.7211  -2.7211
    -2.7140  -2.6795  -2.6795  -2.6771  -2.5964  -2.5964  -2.5679  -2.5679
    -2.5122  -2.5074  -2.3981  -2.3808  -2.3808  -2.2995  -2.2991  -2.2059
    -2.0685  -2.0685  -1.9581  -1.9579  -1.9014  -1.9012  -1.8850  -1.8850
    -1.8435  -1.8435  -1.8332  -1.8191  -1.6031  -1.6031  -1.6018  -1.6018
    -1.5989  -1.5758  -1.5756  -1.4801  -1.4319  -1.4319  -1.3724  -1.3721
    -1.2271  -1.2241  -1.2241  -1.1992  -0.4324  -0.0070  -0.0070   0.3660
     0.8924   0.8924   1.6551   1.6553   2.2733   2.2735   2.9242   2.9242
     3.5019   3.9960   3.9960   4.1077   4.1077   4.3104   4.3105   4.5803
     5.3048   5.3049

     occupation numbers 
     1.0000   1.0000   1.0000   1.0000   1.0000   1.0000   1.0000   1.0000
     1.0000   1.0000   1.0000   1.0000   1.0000   1.0000   1.0000   1.0000
     1.0000   1.0000   1.0000   1.0000   1.0000   1.0000   1.0000   1.0000
     1.0000   1.0000   1.0000   1.0000   1.0000   1.0000   1.0000   1.0000
     1.0000   1.0000   1.0000   1.0000   1.0000   1.0000   1.0000   1.0000
     1.0000   1.0000   1.0000   1.0000   1.0000   1.0000   1.0000   1.0000
     1.0000   1.0000   1.0000   1.0000   1.0000   1.0000   1.0000   1.0000
     1.0000   1.0000   1.0000   1.0000   1.0000   1.0000   1.0000   1.0000
     1.0000   1.0000   1.0000   1.0000   1.0000   1.0000   1.0000   1.0000
     1.0000   1.0000   1.0000   1.0000   1.0000   1.0000   1.0000   1.0000
     1.0000   1.0000   1.0000   1.0000   1.0000   1.0000   1.0000   0.4625
     0.0000   0.0000   0.0000   0.0000   0.0000   0.0000   0.0000   0.0000
     0.0000   0.0000   0.0000   0.0000   0.0000   0.0000   0.0000   0.0000
     0.0000   0.0000

     the Fermi energy is     0.3633 ev

!    total energy              =   -1839.19835924 Ry
     estimated scf accuracy    <       0.00000046 Ry
     smearing contrib. (-TS)   =      -0.00106178 Ry
     internal energy E=F+TS    =   -1839.19729746 Ry

     The total energy is F=E-TS. E is the sum of the following terms:
     one-electron contribution =   -3576.38223805 Ry
     hartree contribution      =    1915.92655114 Ry
     xc contribution           =    -994.40508051 Ry
     ewald contribution        =     815.66346995 Ry

     convergence has been achieved in   4 iterations

     negative rho (up, down):  7.632E-05 0.000E+00

     Forces acting on atoms (cartesian axes, Ry/au):

     atom    1 type  1   force =     0.00000000    0.00000000    0.01045034
     atom    2 type  1   force =     0.00000000    0.00001059   -0.01041864
     atom    3 type  1   force =     0.00001059    0.00000000   -0.01041864
     atom    4 type  1   force =     0.00001312    0.00001312    0.01037882
     atom    5 type  1   force =     0.00000000    0.00000000    0.01045191
     atom    6 type  1   force =     0.00000000   -0.00001059   -0.01041864
     atom    7 type  1   force =     0.00001285    0.00000000   -0.01041476
     atom    8 type  1   force =     0.00001312   -0.00001312    0.01037882
     atom    9 type  1   force =     0.00000000    0.00000000    0.01045191
     atom   10 type  1   force =     0.00000000    0.00001285   -0.01041476
     atom   11 type  1   force =    -0.00001059    0.00000000   -0.01041864
     atom   12 type  1   force =    -0.00001312    0.00001312    0.01037882
     atom   13 type  1   force =     0.00000000    0.00000000    0.01046417
     atom   14 type  1   force =     0.00000000   -0.00001285   -0.01041476
     atom   15 type  1   force =    -0.00001285    0.00000000   -0.01041476
     atom   16 type  1   force =    -0.00001312   -0.00001312    0.01037882
     The non-local contrib.  to forces
     atom    1 type  1   force =     0.00000000    0.00000000    0.01552602
     atom    2 type  1   force =     0.00000000   -0.00000055   -0.01535532
     atom    3 type  1   force =    -0.00000055    0.00000000   -0.01535532
     atom    4 type  1   force =    -0.00000259   -0.00000259    0.01552310
     atom    5 type  1   force =     0.00000000    0.00000000    0.01552377
     atom    6 type  1   force =     0.00000000    0.00000055   -0.01535532
     atom    7 type  1   force =     0.00000049    0.00000000   -0.01535593
     atom    8 type  1   force =    -0.00000259    0.00000259    0.01552310
     atom    9 type  1   force =     0.00000000    0.00000000    0.01552377
     atom   10 type  1   force =     0.00000000    0.00000049   -0.01535593
     atom   11 type  1   force =     0.00000055    0.00000000   -0.01535532
     atom   12 type  1   force =     0.00000259   -0.00000259    0.01552310
     atom   13 type  1   force =     0.00000000    0.00000000    0.01553754
     atom   14 type  1   force =     0.00000000   -0.00000049   -0.01535593
     atom   15 type  1   force =    -0.00000049    0.00000000   -0.01535593
     atom   16 type  1   force =     0.00000259    0.00000259    0.01552310
     The ionic contribution  to forces
     atom    1 type  1   force =    -0.00003843   -0.00003843  -32.64376874
     atom    2 type  1   force =    -0.00003843   -0.00025021   32.64420891
     atom    3 type  1   force =    -0.00025021   -0.00003843   32.64420891
     atom    4 type  1   force =    -0.00023211   -0.00023211  -32.64469927
     atom    5 type  1   force =    -0.00003843    0.00001492  -32.64378363
     atom    6 type  1   force =    -0.00003843    0.00027372   32.64419221
     atom    7 type  1   force =    -0.00022305    0.00001492   32.64431300
     atom    8 type  1   force =    -0.00023211    0.00025562  -32.64468257
     atom    9 type  1   force =     0.00001492   -0.00003843  -32.64378363
     atom   10 type  1   force =     0.00001492   -0.00022305   32.64431300
     atom   11 type  1   force =     0.00027372   -0.00003843   32.64419221
     atom   12 type  1   force =     0.00025562   -0.00023211  -32.64468257
     atom   13 type  1   force =     0.00001492    0.00001492  -32.64395457
     atom   14 type  1   force =     0.00001492    0.00024656   32.64429630
     atom   15 type  1   force =     0.00024656    0.00001492   32.64429630
     atom   16 type  1   force =     0.00025562    0.00025562  -32.64466588
     The local contribution  to forces
     atom    1 type  1   force =    -0.00000000   -0.00000000   32.61135785
     atom    2 type  1   force =    -0.00000000    0.00023418  -32.61277112
     atom    3 type  1   force =     0.00023418   -0.00000000  -32.61277112
     atom    4 type  1   force =     0.00023145    0.00023145   32.61224799
     atom    5 type  1   force =    -0.00000000    0.00004995   32.61134550
     atom    6 type  1   force =    -0.00000000   -0.00013427  -32.61277112
     atom    7 type  1   force =     0.00022065    0.00004995  -32.61285992
     atom    8 type  1   force =     0.00023145   -0.00013154   32.61224799
     atom    9 type  1   force =     0.00004995   -0.00000000   32.61134550
     atom   10 type  1   force =     0.00004995    0.00022065  -32.61285992
     atom   11 type  1   force =    -0.00013427   -0.00000000  -32.61277112
     atom   12 type  1   force =    -0.00013154    0.00023145   32.61224799
     atom   13 type  1   force =     0.00004995    0.00004995   32.61150836
     atom   14 type  1   force =     0.00004995   -0.00012074  -32.61285992
     atom   15 type  1   force =    -0.00012074    0.00004995  -32.61285992
     atom   16 type  1   force =    -0.00013154   -0.00013154   32.61224799
     The core correction contribution to forces
     atom    1 type  1   force =    -0.00000000   -0.00000000    0.02742662
     atom    2 type  1   force =    -0.00000000    0.00001590   -0.02738828
     atom    3 type  1   force =     0.00001590   -0.00000000   -0.02738828
     atom    4 type  1   force =     0.00001796    0.00001796    0.02734390
     atom    5 type  1   force =    -0.00000000    0.00001503    0.02742497
     atom    6 type  1   force =    -0.00000000    0.00001418   -0.02738828
     atom    7 type  1   force =     0.00001613    0.00001503   -0.02738816
     atom    8 type  1   force =     0.00001796    0.00001213    0.02734390
     atom    9 type  1   force =     0.00001503   -0.00000000    0.02742497
     atom   10 type  1   force =     0.00001503    0.00001613   -0.02738816
     atom   11 type  1   force =     0.00001418   -0.00000000   -0.02738828
     atom   12 type  1   force =     0.00001213    0.00001796    0.02734390
     atom   13 type  1   force =     0.00001503    0.00001503    0.02742436
     atom   14 type  1   force =     0.00001503    0.00001396   -0.02738816
     atom   15 type  1   force =     0.00001396    0.00001503   -0.02738816
     atom   16 type  1   force =     0.00001213    0.00001213    0.02734391
     The Hubbard contrib.    to forces
     atom    1 type  1   force =     0.00000000    0.00000000    0.00000000
     atom    2 type  1   force =     0.00000000    0.00000000    0.00000000
     atom    3 type  1   force =     0.00000000    0.00000000    0.00000000
     atom    4 type  1   force =     0.00000000    0.00000000    0.00000000
     atom    5 type  1   force =     0.00000000    0.00000000    0.00000000
     atom    6 type  1   force =     0.00000000    0.00000000    0.00000000
     atom    7 type  1   force =     0.00000000    0.00000000    0.00000000
     atom    8 type  1   force =     0.00000000    0.00000000    0.00000000
     atom    9 type  1   force =     0.00000000    0.00000000    0.00000000
     atom   10 type  1   force =     0.00000000    0.00000000    0.00000000
     atom   11 type  1   force =     0.00000000    0.00000000    0.00000000
     atom   12 type  1   force =     0.00000000    0.00000000    0.00000000
     atom   13 type  1   force =     0.00000000    0.00000000    0.00000000
     atom   14 type  1   force =     0.00000000    0.00000000    0.00000000
     atom   15 type  1   force =     0.00000000    0.00000000    0.00000000
     atom   16 type  1   force =     0.00000000    0.00000000    0.00000000
     The SCF correction term to forces
     atom    1 type  1   force =     0.00000001    0.00000001    0.00003238
     atom    2 type  1   force =     0.00000001    0.00008801    0.00101931
     atom    3 type  1   force =     0.00008801    0.00000001    0.00101931
     atom    4 type  1   force =     0.00007516    0.00007516    0.00007021
     atom    5 type  1   force =     0.00000001    0.00000000    0.00006509
     atom    6 type  1   force =     0.00000001   -0.00008801    0.00101933
     atom    7 type  1   force =     0.00007539    0.00000000    0.00100838
     atom    8 type  1   force =     0.00007516   -0.00007516    0.00007018
     atom    9 type  1   force =     0.00000000    0.00000001    0.00006509
     atom   10 type  1   force =     0.00000000    0.00007539    0.00100838
     atom   11 type  1   force =    -0.00008801    0.00000001    0.00101933
     atom   12 type  1   force =    -0.00007516    0.00007516    0.00007018
     atom   13 type  1   force =     0.00000000    0.00000000    0.00007228
     atom   14 type  1   force =     0.00000000   -0.00007539    0.00100840
     atom   15 type  1   force =    -0.00007539    0.00000000    0.00100840
     atom   16 type  1   force =    -0.00007516   -0.00007516    0.00007016

     Total force =     0.041667     Total SCF correction =     0.002891


     Computing stress (Cartesian axis) and pressure


     negative rho (up, down):  7.632E-05 0.000E+00
          total   stress  (Ry/bohr**3)                   (kbar)     P=      -27.63
  -0.00025565   0.00000000   0.00000000          -37.61        0.00        0.00
   0.00000000  -0.00025565   0.00000000            0.00      -37.61        0.00
   0.00000000   0.00000000  -0.00005213            0.00        0.00       -7.67

     kinetic stress (kbar)   5915.33      0.00      0.00
                                0.00   5915.33      0.00
                                0.00      0.00   5995.55

     local   stress (kbar) -73469.58     -0.00      0.00
                               -0.00 -73469.58      0.00
                                0.00      0.00  87116.01

     nonloc. stress (kbar)  -3789.67      0.00      0.00
                                0.00  -3789.67      0.00
                                0.00      0.00  -3795.81

     hartree stress (kbar)  39817.24      0.00      0.00
                                0.00  39817.24     -0.00
                                0.00     -0.00 -37289.71

     exc-cor stress (kbar)  15342.82      0.00     -0.00
                                0.00  15342.82     -0.00
                               -0.00     -0.00  15336.33

     corecor stress (kbar) -17698.89     -0.00     -0.00
                               -0.00 -17698.89     -0.00
                               -0.00     -0.00 -17707.10

     ewald   stress (kbar)  33845.14      0.00      0.00
                                0.00  33845.14      0.00
                                0.00      0.00 -49662.93

     hubbard stress (kbar)      0.00      0.00      0.00
                                0.00      0.00      0.00
                                0.00      0.00      0.00

     DFT-D   stress (kbar)      0.00      0.00      0.00
                                0.00      0.00      0.00
                                0.00      0.00      0.00

     XDM     stress (kbar)      0.00      0.00      0.00
                                0.00      0.00      0.00
                                0.00      0.00      0.00

     dft-nl  stress (kbar)      0.00      0.00      0.00
                                0.00      0.00      0.00
                                0.00      0.00      0.00

     TS-vdW  stress (kbar)      0.00      0.00      0.00
                                0.00      0.00      0.00
                                0.00      0.00      0.00


     Energy error            =      1.9E-03
     Gradient error          =      1.0E-02

     number of scf cycles    =   2
     number of bfgs steps    =   1

     energy   old            =   -1839.1964217542 Ry
     energy   new            =   -1839.1983592444 Ry

     CASE: energy  _new < energy  _old


     WARNING: bfgs curvature condition failed, Theta= 0.849
     new trust radius        =       0.0122020152 bohr
     new conv_thr            =       0.0000001046 Ry


ATOMIC_POSITIONS (angstrom)
Au            0.0000000000        0.0000000000        0.0123091968
Au            0.0000000000        2.0856587837        2.0733692807
Au            2.0856587837        0.0000000000        2.0733692807
Au            2.0856597162        2.0856597162        0.0122328008
Au            0.0000000000        4.1712880000        0.0123223891
Au            0.0000000000        6.2569172163        2.0733692807
Au            2.0856598940        4.1712880000        2.0733657363
Au            2.0856597162        6.2569162838        0.0122328008
Au            4.1712880000        0.0000000000        0.0123223891
Au            4.1712880000        2.0856598940        2.0733657363
Au            6.2569172163        0.0000000000        2.0733692807
Au            6.2569162838        2.0856597162        0.0122328008
Au            4.1712880000        4.1712880000        0.0123267535
Au            4.1712880000        6.2569161060        2.0733657363
Au            6.2569161060        4.1712880000        2.0733657363
Au            6.2569162838        6.2569162838        0.0122328008



     Writing output data file ./surface.save/
     NEW-OLD atomic charge density approx. for the potential

     Check: negative core charge=   -0.000004

     negative rho (up, down):  7.648E-05 0.000E+00

     total cpu time spent up to now is       50.8 secs

     Self-consistent Calculation

     iteration #  1     ecut=    30.00 Ry     beta= 0.30
     Davidson diagonalization with overlap
     ethr =  1.00E-06,  avg # of iterations =  7.3

     Threshold (ethr) on eigenvalues was too large:
     Diagonalizing with lowered threshold

     Davidson diagonalization with overlap
     ethr =  3.99E-08,  avg # of iterations =  6.3

     negative rho (up, down):  7.660E-05 0.000E+00

     total cpu time spent up to now is       57.9 secs

     total energy              =   -1839.20027739 Ry
     estimated scf accuracy    <       0.00003415 Ry

     iteration #  2     ecut=    30.00 Ry     beta= 0.30
     Davidson diagonalization with overlap
     ethr =  1.94E-08,  avg # of iterations =  2.0

     negative rho (up, down):  7.678E-05 0.000E+00

     total cpu time spent up to now is       59.7 secs

     total energy              =   -1839.20027804 Ry
     estimated scf accuracy    <       0.00002255 Ry

     iteration #  3     ecut=    30.00 Ry     beta= 0.30
     Davidson diagonalization with overlap
     ethr =  1.28E-08,  avg # of iterations =  1.5

     negative rho (up, down):  7.683E-05 0.000E+00

     total cpu time spent up to now is       61.4 secs

     total energy              =   -1839.20027902 Ry
     estimated scf accuracy    <       0.00000821 Ry

     iteration #  4     ecut=    30.00 Ry     beta= 0.30
     Davidson diagonalization with overlap
     ethr =  4.66E-09,  avg # of iterations =  2.0

     negative rho (up, down):  7.691E-05 0.000E+00

     total cpu time spent up to now is       63.3 secs

     total energy              =   -1839.20028000 Ry
     estimated scf accuracy    <       0.00000054 Ry

     iteration #  5     ecut=    30.00 Ry     beta= 0.30
     Davidson diagonalization with overlap
     ethr =  3.08E-10,  avg # of iterations =  4.0

     negative rho (up, down):  7.696E-05 0.000E+00

     total cpu time spent up to now is       65.5 secs

     total energy              =   -1839.20028012 Ry
     estimated scf accuracy    <       0.00000023 Ry

     iteration #  6     ecut=    30.00 Ry     beta= 0.30
     Davidson diagonalization with overlap
     ethr =  1.33E-10,  avg # of iterations =  2.3

     negative rho (up, down):  7.712E-05 0.000E+00

     total cpu time spent up to now is       67.4 secs

     End of self-consistent calculation

          k = 0.0000 0.0000 0.0000 ( 18535 PWs)   bands (ev):

    -6.7738  -5.0401  -4.9061  -4.9061  -4.9061  -4.9061  -4.8252  -4.8252
    -4.8251  -4.8251  -4.8007  -4.6602  -4.6602  -4.3577  -4.3577  -3.9856
    -3.9856  -3.9855  -3.9855  -3.8112  -3.7931  -3.7931  -3.7929  -3.7929
    -3.4345  -3.4345  -3.4345  -3.4344  -3.3387  -3.3387  -3.3387  -3.3387
    -2.9152  -2.9152  -2.9151  -2.9151  -2.9122  -2.9122  -2.9121  -2.9121
    -2.8420  -2.8419  -2.8419  -2.8418  -2.7384  -2.7384  -2.7384  -2.7384
    -2.7181  -2.7181  -2.4530  -2.2451  -2.2451  -2.2451  -2.2451  -2.0697
    -2.0697  -2.0697  -2.0697  -2.0212  -2.0211  -2.0211  -2.0211  -2.0052
    -2.0052  -1.7584  -1.6219  -1.6219  -1.4370  -1.4369  -1.4369  -1.4369
    -1.4354  -1.4354  -1.4354  -1.4354  -1.4331  -1.4331  -1.4330  -1.4330
    -1.2865  -1.2865  -1.2016  -1.1930  -0.6546  -0.6546   0.9339   0.9340
     0.9340   0.9341   1.1339   1.1339   1.1340   1.1340   2.2362   3.3818
     3.3818   3.3818   3.3819   4.0287   4.0287   5.1822   5.4897   5.4897
     5.4899   5.4899

     occupation numbers 
     1.0000   1.0000   1.0000   1.0000   1.0000   1.0000   1.0000   1.0000
     1.0000   1.0000   1.0000   1.0000   1.0000   1.0000   1.0000   1.0000
     1.0000   1.0000   1.0000   1.0000   1.0000   1.0000   1.0000   1.0000
     1.0000   1.0000   1.0000   1.0000   1.0000   1.0000   1.0000   1.0000
     1.0000   1.0000   1.0000   1.0000   1.0000   1.0000   1.0000   1.0000
     1.0000   1.0000   1.0000   1.0000   1.0000   1.0000   1.0000   1.0000
     1.0000   1.0000   1.0000   1.0000   1.0000   1.0000   1.0000   1.0000
     1.0000   1.0000   1.0000   1.0000   1.0000   1.0000   1.0000   1.0000
     1.0000   1.0000   1.0000   1.0000   1.0000   1.0000   1.0000   1.0000
     1.0000   1.0000   1.0000   1.0000   1.0000   1.0000   1.0000   1.0000
     1.0000   1.0000   1.0000   1.0000   1.0000   1.0000   0.0000   0.0000
     0.0000   0.0000   0.0000   0.0000   0.0000   0.0000   0.0000   0.0000
     0.0000   0.0000   0.0000   0.0000   0.0000   0.0000   0.0000   0.0000
     0.0000   0.0000

          k = 0.0000 0.2000 0.0000 ( 18459 PWs)   bands (ev):

    -6.6714  -5.3389  -4.9569  -4.9415  -4.9415  -4.8380  -4.8379  -4.7977
    -4.7976  -4.7505  -4.6190  -4.6009  -4.5363  -4.3324  -4.3308  -4.1276
    -4.1159  -4.1158  -4.0255  -3.9679  -3.9322  -3.7638  -3.7576  -3.7574
    -3.7142  -3.5205  -3.5205  -3.3173  -3.3173  -3.3169  -3.3169  -3.0919
    -3.0639  -3.0315  -3.0074  -3.0073  -2.9337  -2.9097  -2.9096  -2.9002
    -2.9001  -2.8290  -2.8290  -2.7743  -2.7509  -2.7023  -2.7022  -2.5850
    -2.5184  -2.4526  -2.4224  -2.3886  -2.0968  -2.0911  -2.0911  -2.0716
    -2.0716  -2.0532  -2.0129  -2.0129  -2.0093  -1.9403  -1.9403  -1.9293
    -1.8881  -1.8507  -1.6517  -1.6327  -1.5491  -1.5491  -1.5480  -1.5461
    -1.5461  -1.4174  -1.4174  -1.4076  -1.4051  -1.3512  -1.2959  -1.2926
    -1.2925  -1.2549  -1.0611  -1.0104  -0.8645  -0.7516   0.0154   0.0154
     0.3957   1.2074   1.2074   2.0211   2.0653   2.0654   2.4358   2.5411
     2.5412   2.9217   4.3249   4.3749   4.3749   4.5416   5.2764   5.3295
     5.5432   5.5434

     occupation numbers 
     1.0000   1.0000   1.0000   1.0000   1.0000   1.0000   1.0000   1.0000
     1.0000   1.0000   1.0000   1.0000   1.0000   1.0000   1.0000   1.0000
     1.0000   1.0000   1.0000   1.0000   1.0000   1.0000   1.0000   1.0000
     1.0000   1.0000   1.0000   1.0000   1.0000   1.0000   1.0000   1.0000
     1.0000   1.0000   1.0000   1.0000   1.0000   1.0000   1.0000   1.0000
     1.0000   1.0000   1.0000   1.0000   1.0000   1.0000   1.0000   1.0000
     1.0000   1.0000   1.0000   1.0000   1.0000   1.0000   1.0000   1.0000
     1.0000   1.0000   1.0000   1.0000   1.0000   1.0000   1.0000   1.0000
     1.0000   1.0000   1.0000   1.0000   1.0000   1.0000   1.0000   1.0000
     1.0000   1.0000   1.0000   1.0000   1.0000   1.0000   1.0000   1.0000
     1.0000   1.0000   1.0000   1.0000   1.0000   1.0000   1.0000   1.0000
     0.2460   0.0000   0.0000   0.0000   0.0000   0.0000   0.0000   0.0000
     0.0000   0.0000   0.0000   0.0000   0.0000   0.0000   0.0000   0.0000
     0.0000   0.0000

          k = 0.0000 0.4000 0.0000 ( 18418 PWs)   bands (ev):

    -6.3720  -5.9043  -4.9211  -4.9210  -4.8754  -4.8753  -4.7171  -4.6138
    -4.6138  -4.6042  -4.5267  -4.4705  -4.4328  -4.3786  -4.3699  -4.3699
    -4.3559  -4.2543  -4.2374  -4.1881  -4.1416  -4.0281  -3.6784  -3.6783
    -3.6232  -3.5941  -3.5940  -3.3951  -3.2308  -3.2308  -3.1773  -3.1773
    -3.0507  -3.0507  -3.0450  -3.0449  -3.0109  -3.0088  -3.0087  -2.9889
    -2.9889  -2.9577  -2.8949  -2.8407  -2.5441  -2.4578  -2.4244  -2.4145
    -2.4144  -2.3338  -2.1839  -2.1838  -2.1724  -2.1392  -2.1199  -2.0358
    -1.9639  -1.9464  -1.8770  -1.8770  -1.8246  -1.8246  -1.8155  -1.8155
    -1.7592  -1.7474  -1.7096  -1.7096  -1.6689  -1.6386  -1.6366  -1.6365
    -1.5437  -1.5087  -1.5087  -1.4658  -1.4091  -1.3675  -1.3624  -1.3229
    -1.2607  -1.0757  -1.0756  -0.9958  -0.7131  -0.6632  -0.6632  -0.2181
    -0.0179   1.3640   1.4428   1.4429   1.8719   1.8719   2.9606   3.0715
     3.4372   3.4373   3.6881   4.2401   4.9635   4.9636   5.0853   5.2866
     5.2867   5.6148

     occupation numbers 
     1.0000   1.0000   1.0000   1.0000   1.0000   1.0000   1.0000   1.0000
     1.0000   1.0000   1.0000   1.0000   1.0000   1.0000   1.0000   1.0000
     1.0000   1.0000   1.0000   1.0000   1.0000   1.0000   1.0000   1.0000
     1.0000   1.0000   1.0000   1.0000   1.0000   1.0000   1.0000   1.0000
     1.0000   1.0000   1.0000   1.0000   1.0000   1.0000   1.0000   1.0000
[...]
     1.0000   1.0000   1.0000   1.0000   1.0000   1.0000   1.0000   1.0000
     1.0000   1.0000   1.0000   1.0000   1.0000   1.0000   1.0000   1.0000
     1.0000   1.0000   1.0000   1.0000   1.0000   1.0000   1.0000   1.0000
     0.7489   0.0000   0.0000   0.0000   0.0000   0.0000   0.0000   0.0000
     0.0000   0.0000   0.0000   0.0000   0.0000   0.0000   0.0000   0.0000
     0.0000   0.0000

          k = 0.4000 0.4000 0.0000 ( 18510 PWs)   bands (ev):

    -6.1759  -5.8160  -5.8160  -5.5849  -4.8713  -4.8339  -4.7873  -4.7873
    -4.5716  -4.5716  -4.5398  -4.5398  -4.4844  -4.4844  -4.4220  -4.4220
    -4.2434  -4.2434  -4.2299  -4.0484  -4.0484  -4.0056  -4.0056  -3.9439
    -3.9439  -3.8095  -3.8095  -3.7888  -3.3845  -3.2134  -3.1844  -3.1843
    -3.1772  -3.1772  -3.0591  -2.9806  -2.9468  -2.9468  -2.8534  -2.8534
    -2.8500  -2.8059  -2.7137  -2.7137  -2.6285  -2.6068  -2.6068  -2.5954
    -2.5954  -2.4072  -2.3869  -2.3868  -2.3781  -2.3277  -2.3276  -2.3113
    -1.9967  -1.9967  -1.8789  -1.8788  -1.8393  -1.8393  -1.8158  -1.8158
    -1.8105  -1.8105  -1.8058  -1.7825  -1.6049  -1.6049  -1.5652  -1.5651
    -1.5398  -1.5398  -1.5307  -1.4218  -1.3946  -1.3946  -1.3493  -1.3493
    -1.1510  -1.1509  -1.1509  -1.1330  -0.3508   0.0935   0.0935   0.4749
     0.8876   0.8876   1.6438   1.6438   2.2658   2.2658   2.9506   2.9506
     3.5996   4.1014   4.1014   4.1953   4.1953   4.4214   4.4215   4.6542
     5.4318   5.4318

     occupation numbers 
     1.0000   1.0000   1.0000   1.0000   1.0000   1.0000   1.0000   1.0000
     1.0000   1.0000   1.0000   1.0000   1.0000   1.0000   1.0000   1.0000
     1.0000   1.0000   1.0000   1.0000   1.0000   1.0000   1.0000   1.0000
     1.0000   1.0000   1.0000   1.0000   1.0000   1.0000   1.0000   1.0000
     1.0000   1.0000   1.0000   1.0000   1.0000   1.0000   1.0000   1.0000
     1.0000   1.0000   1.0000   1.0000   1.0000   1.0000   1.0000   1.0000
     1.0000   1.0000   1.0000   1.0000   1.0000   1.0000   1.0000   1.0000
     1.0000   1.0000   1.0000   1.0000   1.0000   1.0000   1.0000   1.0000
     1.0000   1.0000   1.0000   1.0000   1.0000   1.0000   1.0000   1.0000
     1.0000   1.0000   1.0000   1.0000   1.0000   1.0000   1.0000   1.0000
     1.0000   1.0000   1.0000   1.0000   1.0000   1.0000   1.0000   0.0021
     0.0000   0.0000   0.0000   0.0000   0.0000   0.0000   0.0000   0.0000
     0.0000   0.0000   0.0000   0.0000   0.0000   0.0000   0.0000   0.0000
     0.0000   0.0000

     the Fermi energy is     0.3921 ev

!    total energy              =   -1839.20554729 Ry
     estimated scf accuracy    <          6.8E-09 Ry
     smearing contrib. (-TS)   =      -0.00043710 Ry
     internal energy E=F+TS    =   -1839.20511019 Ry

     The total energy is F=E-TS. E is the sum of the following terms:
     one-electron contribution =   -3655.36127287 Ry
     hartree contribution      =    1955.36579517 Ry
     xc contribution           =    -994.63835216 Ry
     ewald contribution        =     855.42871967 Ry

     convergence has been achieved in   5 iterations

     negative rho (up, down):  7.920E-05 0.000E+00

     Forces acting on atoms (cartesian axes, Ry/au):

     atom    1 type  1   force =     0.00000000    0.00000000    0.00001900
     atom    2 type  1   force =     0.00000000    0.00000459   -0.00003679
     atom    3 type  1   force =     0.00000459    0.00000000   -0.00003679
     atom    4 type  1   force =     0.00000425    0.00000425    0.00005204
     atom    5 type  1   force =     0.00000000    0.00000000    0.00001463
     atom    6 type  1   force =     0.00000000   -0.00000459   -0.00003679
     atom    7 type  1   force =     0.00000541    0.00000000   -0.00003128
     atom    8 type  1   force =     0.00000425   -0.00000425    0.00005204
     atom    9 type  1   force =     0.00000000    0.00000000    0.00001463
     atom   10 type  1   force =     0.00000000    0.00000541   -0.00003128
     atom   11 type  1   force =    -0.00000459    0.00000000   -0.00003679
     atom   12 type  1   force =    -0.00000425    0.00000425    0.00005204
     atom   13 type  1   force =     0.00000000    0.00000000    0.00001589
     atom   14 type  1   force =     0.00000000   -0.00000541   -0.00003128
     atom   15 type  1   force =    -0.00000541    0.00000000   -0.00003128
     atom   16 type  1   force =    -0.00000425   -0.00000425    0.00005204
     The non-local contrib.  to forces
     atom    1 type  1   force =     0.00000000    0.00000000    0.01223869
     atom    2 type  1   force =     0.00000000    0.00000541   -0.01225902
     atom    3 type  1   force =     0.00000541    0.00000000   -0.01225902
     atom    4 type  1   force =     0.00000543    0.00000543    0.01225632
     atom    5 type  1   force =     0.00000000    0.00000000    0.01224594
     atom    6 type  1   force =     0.00000000   -0.00000541   -0.01225902
     atom    7 type  1   force =     0.00000471    0.00000000   -0.01226189
     atom    8 type  1   force =     0.00000543   -0.00000543    0.01225632
     atom    9 type  1   force =     0.00000000    0.00000000    0.01224594
     atom   10 type  1   force =     0.00000000    0.00000471   -0.01226189
     atom   11 type  1   force =    -0.00000541    0.00000000   -0.01225902
     atom   12 type  1   force =    -0.00000543    0.00000543    0.01225632
     atom   13 type  1   force =     0.00000000    0.00000000    0.01225608
     atom   14 type  1   force =     0.00000000   -0.00000471   -0.01226189
     atom   15 type  1   force =    -0.00000471    0.00000000   -0.01226189
     atom   16 type  1   force =    -0.00000543   -0.00000543    0.01225632
     The ionic contribution  to forces
     atom    1 type  1   force =    -0.00003967   -0.00003967  -32.86186325
     atom    2 type  1   force =    -0.00003967   -0.00055243   32.86477321
     atom    3 type  1   force =    -0.00055243   -0.00003967   32.86477321
     atom    4 type  1   force =    -0.00059904   -0.00059904  -32.86787517
     atom    5 type  1   force =    -0.00003967    0.00001511  -32.86159933
     atom    6 type  1   force =    -0.00003967    0.00057699   32.86475557
     atom    7 type  1   force =    -0.00051479    0.00001511   32.86487552
     atom    8 type  1   force =    -0.00059903    0.00062359  -32.86785753
     atom    9 type  1   force =     0.00001511   -0.00003967  -32.86159933
     atom   10 type  1   force =     0.00001511   -0.00051479   32.86487552
     atom   11 type  1   force =     0.00057699   -0.00003967   32.86475557
     atom   12 type  1   force =     0.00062359   -0.00059903  -32.86785753
     atom   13 type  1   force =     0.00001511    0.00001511  -32.86203232
     atom   14 type  1   force =     0.00001511    0.00053935   32.86485788
     atom   15 type  1   force =     0.00053935    0.00001511   32.86485788
     atom   16 type  1   force =     0.00062359    0.00062359  -32.86783989
     The local contribution  to forces
     atom    1 type  1   force =    -0.00000000   -0.00000000   32.81904761
     atom    2 type  1   force =    -0.00000000    0.00057187  -32.82189400
     atom    3 type  1   force =     0.00057187   -0.00000000  -32.82189400
     atom    4 type  1   force =     0.00061971    0.00061971   32.82505442
     atom    5 type  1   force =    -0.00000000    0.00004936   32.81875682
     atom    6 type  1   force =    -0.00000000   -0.00047315  -32.82189400
     atom    7 type  1   force =     0.00053668    0.00004937  -32.82197017
     atom    8 type  1   force =     0.00061971   -0.00052098   32.82505443
     atom    9 type  1   force =     0.00004936   -0.00000000   32.81875682
     atom   10 type  1   force =     0.00004937    0.00053668  -32.82197017
     atom   11 type  1   force =    -0.00047315   -0.00000000  -32.82189400
     atom   12 type  1   force =    -0.00052098    0.00061971   32.82505443
     atom   13 type  1   force =     0.00004936    0.00004936   32.81916694
     atom   14 type  1   force =     0.00004937   -0.00043796  -32.82197017
     atom   15 type  1   force =    -0.00043796    0.00004937  -32.82197017
     atom   16 type  1   force =    -0.00052098   -0.00052098   32.82505443
     The core correction contribution to forces
     atom    1 type  1   force =    -0.00000000   -0.00000000    0.03067302
     atom    2 type  1   force =    -0.00000000    0.00001559   -0.03068141
     atom    3 type  1   force =     0.00001559   -0.00000000   -0.03068141
     atom    4 type  1   force =     0.00001555    0.00001555    0.03066413
     atom    5 type  1   force =    -0.00000000    0.00001503    0.03067490
     atom    6 type  1   force =    -0.00000001    0.00001448   -0.03068141
     atom    7 type  1   force =     0.00001539    0.00001503   -0.03068457
     atom    8 type  1   force =     0.00001554    0.00001452    0.03066413
     atom    9 type  1   force =     0.00001503   -0.00000000    0.03067490
     atom   10 type  1   force =     0.00001503    0.00001539   -0.03068457
     atom   11 type  1   force =     0.00001448   -0.00000001   -0.03068141
     atom   12 type  1   force =     0.00001452    0.00001554    0.03066413
     atom   13 type  1   force =     0.00001503    0.00001503    0.03067645
     atom   14 type  1   force =     0.00001503    0.00001467   -0.03068458
     atom   15 type  1   force =     0.00001467    0.00001503   -0.03068458
     atom   16 type  1   force =     0.00001452    0.00001452    0.03066413
     The Hubbard contrib.    to forces
     atom    1 type  1   force =     0.00000000    0.00000000    0.00000000
     atom    2 type  1   force =     0.00000000    0.00000000    0.00000000
     atom    3 type  1   force =     0.00000000    0.00000000    0.00000000
     atom    4 type  1   force =     0.00000000    0.00000000    0.00000000
     atom    5 type  1   force =     0.00000000    0.00000000    0.00000000
     atom    6 type  1   force =     0.00000000    0.00000000    0.00000000
     atom    7 type  1   force =     0.00000000    0.00000000    0.00000000
     atom    8 type  1   force =     0.00000000    0.00000000    0.00000000
     atom    9 type  1   force =     0.00000000    0.00000000    0.00000000
     atom   10 type  1   force =     0.00000000    0.00000000    0.00000000
     atom   11 type  1   force =     0.00000000    0.00000000    0.00000000
     atom   12 type  1   force =     0.00000000    0.00000000    0.00000000
     atom   13 type  1   force =     0.00000000    0.00000000    0.00000000
     atom   14 type  1   force =     0.00000000    0.00000000    0.00000000
     atom   15 type  1   force =     0.00000000    0.00000000    0.00000000
     atom   16 type  1   force =     0.00000000    0.00000000    0.00000000
     The SCF correction term to forces
     atom    1 type  1   force =    -0.00000000   -0.00000000   -0.00008990
     atom    2 type  1   force =    -0.00000000    0.00004082    0.00002042
     atom    3 type  1   force =     0.00004082   -0.00000000    0.00002042
     atom    4 type  1   force =     0.00003928    0.00003928   -0.00007814
     atom    5 type  1   force =    -0.00000000   -0.00000000   -0.00007652
     atom    6 type  1   force =    -0.00000000   -0.00004082    0.00002042
     atom    7 type  1   force =     0.00004009   -0.00000000    0.00000584
     atom    8 type  1   force =     0.00003928   -0.00003928   -0.00007813
     atom    9 type  1   force =    -0.00000000   -0.00000000   -0.00007652
     atom   10 type  1   force =    -0.00000000    0.00004009    0.00000584
     atom   11 type  1   force =    -0.00004082   -0.00000000    0.00002042
     atom   12 type  1   force =    -0.00003928    0.00003928   -0.00007813
     atom   13 type  1   force =    -0.00000000   -0.00000000   -0.00006409
     atom   14 type  1   force =    -0.00000000   -0.00004009    0.00000583
     atom   15 type  1   force =    -0.00004009   -0.00000000    0.00000583
     atom   16 type  1   force =    -0.00003928   -0.00003928   -0.00007813

     Total force =     0.000147     Total SCF correction =     0.000275
     SCF correction compared to forces is large: reduce conv_thr to get better values


     Computing stress (Cartesian axis) and pressure


     negative rho (up, down):  7.920E-05 0.000E+00
          total   stress  (Ry/bohr**3)                   (kbar)     P=      -19.70
  -0.00019922   0.00000000   0.00000000          -29.31        0.00        0.00
   0.00000000  -0.00019922   0.00000000            0.00      -29.31        0.00
   0.00000000   0.00000000  -0.00000333            0.00        0.00       -0.49

     kinetic stress (kbar)   5920.00      0.00      0.00
                                0.00   5920.00      0.00
                                0.00      0.00   5993.28

     local   stress (kbar) -75383.40     -0.00      0.00
                               -0.00 -75383.40      0.00
                                0.00      0.00  89199.04

     nonloc. stress (kbar)  -3784.13      0.00      0.00
                                0.00  -3784.13      0.00
                                0.00      0.00  -3791.46

     hartree stress (kbar)  40738.67      0.00      0.00
                                0.00  40738.67      0.00
                                0.00      0.00 -38260.91

     exc-cor stress (kbar)  15341.71      0.00      0.00
                                0.00  15341.71      0.00
                                0.00      0.00  15335.08

     corecor stress (kbar) -17699.62     -0.00     -0.00
                               -0.00 -17699.62     -0.00
                               -0.00     -0.00 -17706.83

     ewald   stress (kbar)  34837.46      0.00      0.00
                                0.00  34837.46      0.00
                                0.00      0.00 -50768.70

     hubbard stress (kbar)      0.00      0.00      0.00
                                0.00      0.00      0.00
                                0.00      0.00      0.00

     DFT-D   stress (kbar)      0.00      0.00      0.00
                                0.00      0.00      0.00
                                0.00      0.00      0.00

     XDM     stress (kbar)      0.00      0.00      0.00
                                0.00      0.00      0.00
                                0.00      0.00      0.00

     dft-nl  stress (kbar)      0.00      0.00      0.00
                                0.00      0.00      0.00
                                0.00      0.00      0.00

     TS-vdW  stress (kbar)      0.00      0.00      0.00
                                0.00      0.00      0.00
                                0.00      0.00      0.00


     Energy error            =      7.0E-06
     Gradient error          =      5.2E-05

     bfgs converged in   7 scf cycles and   6 bfgs steps
     (criteria: energy <  1.0E-04 Ry, force <  1.0E-03 Ry/Bohr)

     End of BFGS Geometry Optimization

     Final energy   =   -1839.2055472874 Ry

     File ./surface.bfgs deleted, as requested
Begin final coordinates

ATOMIC_POSITIONS (angstrom)
Au            0.0000000000        0.0000000000        0.0461100500
Au            0.0000000000        2.0856574332        2.0396594634
Au            2.0856574332        0.0000000000        2.0396594634
Au            2.0856632451        2.0856632451        0.0458531924
Au            0.0000000000        4.1712880000        0.0461449832
Au            0.0000000000        6.2569185668        2.0396594634
Au            2.0856605495        4.1712880000        2.0396392605
Au            2.0856632451        6.2569127549        0.0458531924
Au            4.1712880000        0.0000000000        0.0461449832
Au            4.1712880000        2.0856605495        2.0396392605
Au            6.2569185668        0.0000000000        2.0396594634
Au            6.2569127549        2.0856632451        0.0458531924
Au            4.1712880000        4.1712880000        0.0461443185
Au            4.1712880000        6.2569154505        2.0396392605
Au            6.2569154505        4.1712880000        2.0396392605
Au            6.2569127549        6.2569127549        0.0458531924
End final coordinates



     Writing output data file ./surface.save/

     init_run     :      1.45s CPU      1.53s WALL (       1 calls)
     electrons    :    119.94s CPU    127.11s WALL (       7 calls)
     update_pot   :      1.90s CPU      1.91s WALL (       6 calls)
     forces       :      5.97s CPU      6.37s WALL (       7 calls)
     stress       :     27.70s CPU     28.62s WALL (       7 calls)

     Called by init_run:
     wfcinit      :      0.60s CPU      0.61s WALL (       1 calls)
     wfcinit:atom :      0.00s CPU      0.00s WALL (       6 calls)
     wfcinit:wfcr :      0.57s CPU      0.58s WALL (       6 calls)
     potinit      :      0.13s CPU      0.14s WALL (       1 calls)
     hinit0       :      0.24s CPU      0.26s WALL (       1 calls)

     Called by electrons:
     c_bands      :     91.05s CPU     91.88s WALL (      54 calls)
     sum_band     :     20.35s CPU     24.18s WALL (      54 calls)
     v_of_rho     :      1.70s CPU      1.72s WALL (      54 calls)
     v_h          :      0.12s CPU      0.12s WALL (      54 calls)
     v_xc         :      1.99s CPU      2.01s WALL (      68 calls)
     newd         :      7.57s CPU     10.18s WALL (      54 calls)
     mix_rho      :      0.16s CPU      0.16s WALL (      54 calls)

     Called by c_bands:
     init_us_2    :      0.54s CPU      0.55s WALL (     738 calls)
     cegterg      :     88.14s CPU     88.94s WALL (     324 calls)

     Called by sum_band:
     sum_band:wei :      0.01s CPU      0.02s WALL (      54 calls)
     sum_band:loo :      9.06s CPU      9.16s WALL (      54 calls)
     sum_band:buf :      0.05s CPU      0.05s WALL (     324 calls)
     sum_band:ini :      0.23s CPU      0.23s WALL (     324 calls)
     sum_band:cal :      3.56s CPU      3.58s WALL (     324 calls)
     sum_band:bec :      0.11s CPU      0.11s WALL (     324 calls)
     addusdens    :      7.54s CPU     11.24s WALL (      54 calls)
     addusd:skk   :      0.05s CPU      0.06s WALL (      54 calls)
     addusd:dgemm :      2.80s CPU      6.04s WALL (      54 calls)
     addusd:qvan2 :      4.02s CPU      4.05s WALL (      54 calls)

     Called by *egterg:
     cdiaghg      :     13.55s CPU     13.63s WALL (    1362 calls)
     cegterg:over :      7.72s CPU      7.77s WALL (    1116 calls)
     cegterg:upda :      3.84s CPU      3.86s WALL (    1116 calls)
     cegterg:last :     10.01s CPU     10.07s WALL (     884 calls)
     cdiaghg:chol :      0.54s CPU      0.55s WALL (    1362 calls)
     cdiaghg:inve :      0.58s CPU      0.58s WALL (    1362 calls)
     cdiaghg:para :      1.31s CPU      1.32s WALL (    2724 calls)
     h_psi        :     45.73s CPU     46.27s WALL (    1446 calls)
     s_psi        :      5.39s CPU      5.42s WALL (    1446 calls)
     g_psi        :      0.10s CPU      0.10s WALL (    1116 calls)

     Called by h_psi:
     h_psi:calbec :     12.12s CPU     12.19s WALL (    1446 calls)
     vloc_psi     :     27.70s CPU     28.15s WALL (    1446 calls)
     add_vuspsi   :      5.79s CPU      5.82s WALL (    1446 calls)

     General routines
     calbec       :     19.33s CPU     19.44s WALL (    1980 calls)
     fft          :      1.78s CPU      1.82s WALL (     876 calls)
     ffts         :      0.05s CPU      0.05s WALL (     108 calls)
     fftw         :     30.54s CPU     31.02s WALL (  240892 calls)
     interpolate  :      0.12s CPU      0.12s WALL (      54 calls)

     Parallel routines
     fft_scatt_xy :      2.39s CPU      2.43s WALL (  241876 calls)
     fft_scatt_yz :     17.13s CPU     17.41s WALL (  241876 calls)

     PWSCF        :   2m38.33s CPU   2m47.92s WALL


   This run was terminated on:   0:28: 7   6Dec2021            

=------------------------------------------------------------------------------=
   JOB DONE.
=------------------------------------------------------------------------------=
