
     Program PWSCF v.6.7MaX starts on  6Dec2021 at  0:25:19 

     This program is part of the open-source Quantum ESPRESSO suite
     for quantum simulation of materials; please cite
         "P. Giannozzi et al., J. Phys.:Condens. Matter 21 395502 (2009);
         "P. Giannozzi et al., J. Phys.:Condens. Matter 29 465901 (2017);
          URL http://www.quantum-espresso.org", 
     in publications or presentations arising from this work. More details at
     http://www.quantum-espresso.org/quote

     Parallel version (MPI), running on    32 processors

     MPI processes distributed on     1 nodes
     R & G space division:  proc/nbgrp/npool/nimage =      32
     Reading input from au_surface.100.k.qe.4_4_1.in

     Current dimensions of program PWSCF are:
     Max number of different atomic species (ntypx) = 10
     Max number of k-points (npk) =  40000
     Max angular momentum in pseudopotentials (lmaxx) =  3

     Subspace diagonalization in iterative solution of the eigenvalue problem:
     one sub-group per band group will be used
     scalapack distributed-memory algorithm (size of sub-group:  5*  5 procs)

     Found symmetry operation: I + (  0.2500  0.2500  0.0000)
     This is a supercell, fractional translations are disabled

     Parallelization info
     --------------------
     sticks:   dense  smooth     PW     G-vecs:    dense   smooth      PW
     Min         185      74     20                18243     4618     670
     Max         186      75     21                18250     4623     677
     Sum        5949    2377    665               583927   147845   21545



     bravais-lattice index     =            8
     lattice parameter (alat)  =      15.7652  a.u.
     unit-cell volume          =    6655.8994 (a.u.)^3
     number of atoms/cell      =           16
     number of atomic types    =            1
     number of electrons       =       176.00
     number of Kohn-Sham states=          106
     kinetic-energy cutoff     =      30.0000  Ry
     charge density cutoff     =     300.0000  Ry
     scf convergence threshold =      1.0E-06
     mixing beta               =       0.3000
     number of iterations used =            8  plain     mixing
     energy convergence thresh.=      1.0E-04
     force convergence thresh. =      1.0E-03
     Exchange-correlation= SLA  PW   PBE  PBE
                           (   1   4   3   4   0   0   0)
     nstep                     =           50


     celldm(1)=  15.765191  celldm(2)=   1.000000  celldm(3)=   1.698670
     celldm(4)=   0.000000  celldm(5)=   0.000000  celldm(6)=   0.000000

     crystal axes: (cart. coord. in units of alat)
               a(1) = (   1.000000   0.000000   0.000000 )  
               a(2) = (   0.000000   1.000000   0.000000 )  
               a(3) = (   0.000000   0.000000   1.698670 )  

     reciprocal axes: (cart. coord. in units 2 pi/alat)
               b(1) = (  1.000000  0.000000  0.000000 )  
               b(2) = (  0.000000  1.000000  0.000000 )  
               b(3) = (  0.000000  0.000000  0.588696 )  


     PseudoPot. # 1 for Au read from file:
     /expanse/lustre/projects/csd622/tpascal/nano110/qe/pseudo/au_pbe_v1.uspp.F.UPF
     MD5 check sum: 9d7f43293ad2c663164586bc4b293ffc
     Pseudo is Ultrasoft + core correction, Zval = 11.0
     Generated by new atomic code, or converted to UPF format
     Using radial grid of  985 points,  7 beta functions with: 
                l(1) =   0
                l(2) =   0
                l(3) =   1
                l(4) =   1
                l(5) =   2
                l(6) =   2
                l(7) =   3
     Q(r) pseudized with  6 coefficients,  rinner =    1.900   1.900   1.900
                                                       1.900   1.900   1.900
                                                       1.900

     atomic species   valence    mass     pseudopotential
        Au            11.00   196.96655     Au( 1.00)

      8 Sym. Ops. (no inversion) found


                                    s                        frac. trans.

      isym =  1     identity                                     

 cryst.   s( 1) = (     1          0          0      )
                  (     0          1          0      )
                  (     0          0          1      )

 cart.    s( 1) = (  1.0000000  0.0000000  0.0000000 )
                  (  0.0000000  1.0000000  0.0000000 )
                  (  0.0000000  0.0000000  1.0000000 )


      isym =  2     180 deg rotation - cart. axis [0,0,1]        

 cryst.   s( 2) = (    -1          0          0      )
                  (     0         -1          0      )
                  (     0          0          1      )

 cart.    s( 2) = ( -1.0000000  0.0000000  0.0000000 )
                  (  0.0000000 -1.0000000  0.0000000 )
                  (  0.0000000  0.0000000  1.0000000 )


      isym =  3      90 deg rotation - cart. axis [0,0,-1]       

 cryst.   s( 3) = (     0         -1          0      )
                  (     1          0          0      )
                  (     0          0          1      )

 cart.    s( 3) = (  0.0000000  1.0000000  0.0000000 )
                  ( -1.0000000  0.0000000  0.0000000 )
                  (  0.0000000  0.0000000  1.0000000 )


      isym =  4      90 deg rotation - cart. axis [0,0,1]        

 cryst.   s( 4) = (     0          1          0      )
                  (    -1          0          0      )
                  (     0          0          1      )

 cart.    s( 4) = (  0.0000000 -1.0000000  0.0000000 )
                  (  1.0000000  0.0000000  0.0000000 )
                  (  0.0000000  0.0000000  1.0000000 )


      isym =  5     inv. 180 deg rotation - cart. axis [0,1,0]   

 cryst.   s( 5) = (     1          0          0      )
                  (     0         -1          0      )
                  (     0          0          1      )

 cart.    s( 5) = (  1.0000000  0.0000000  0.0000000 )
                  (  0.0000000 -1.0000000  0.0000000 )
                  (  0.0000000  0.0000000  1.0000000 )


      isym =  6     inv. 180 deg rotation - cart. axis [1,0,0]   

 cryst.   s( 6) = (    -1          0          0      )
                  (     0          1          0      )
                  (     0          0          1      )

 cart.    s( 6) = ( -1.0000000  0.0000000  0.0000000 )
                  (  0.0000000  1.0000000  0.0000000 )
                  (  0.0000000  0.0000000  1.0000000 )


      isym =  7     inv. 180 deg rotation - cart. axis [1,1,0]   

 cryst.   s( 7) = (     0         -1          0      )
                  (    -1          0          0      )
                  (     0          0          1      )

 cart.    s( 7) = (  0.0000000 -1.0000000  0.0000000 )
                  ( -1.0000000  0.0000000  0.0000000 )
                  (  0.0000000  0.0000000  1.0000000 )


      isym =  8     inv. 180 deg rotation - cart. axis [1,-1,0]  

 cryst.   s( 8) = (     0          1          0      )
                  (     1          0          0      )
                  (     0          0          1      )

 cart.    s( 8) = (  0.0000000  1.0000000  0.0000000 )
                  (  1.0000000  0.0000000  0.0000000 )
                  (  0.0000000  0.0000000  1.0000000 )


     point group C_4v (4mm) 
     there are  5 classes
     the character table:

       E     2C4   C2    2s_v  2s_d 
A_1    1.00  1.00  1.00  1.00  1.00
A_2    1.00  1.00  1.00 -1.00 -1.00
B_1    1.00 -1.00  1.00  1.00 -1.00
B_2    1.00 -1.00  1.00 -1.00  1.00
E      2.00  0.00 -2.00  0.00  0.00

     the symmetry operations in each class and the name of the first element:

     E        1
          identity                                               
     2C4      3    4
           90 deg rotation - cart. axis [0,0,-1]                 
     C2       2
          180 deg rotation - cart. axis [0,0,1]                  
     2s_v     5    6
          inv. 180 deg rotation - cart. axis [0,1,0]             
     2s_d     7    8
          inv. 180 deg rotation - cart. axis [1,1,0]             

   Cartesian axes

     site n.     atom                  positions (alat units)
         1           Au  tau(   1) = (   0.0000000   0.0000000   0.0000000  )
         2           Au  tau(   2) = (   0.0000000   0.2499999   0.2499999  )
         3           Au  tau(   3) = (   0.2499999   0.0000000   0.2499999  )
         4           Au  tau(   4) = (   0.2499999   0.2499999   0.0000000  )
         5           Au  tau(   5) = (   0.0000000   0.4999998   0.0000000  )
         6           Au  tau(   6) = (   0.0000000   0.7499996   0.2499999  )
         7           Au  tau(   7) = (   0.2499999   0.4999998   0.2499999  )
         8           Au  tau(   8) = (   0.2499999   0.7499996   0.0000000  )
         9           Au  tau(   9) = (   0.4999998   0.0000000   0.0000000  )
        10           Au  tau(  10) = (   0.4999998   0.2499999   0.2499999  )
        11           Au  tau(  11) = (   0.7499996   0.0000000   0.2499999  )
        12           Au  tau(  12) = (   0.7499996   0.2499999   0.0000000  )
        13           Au  tau(  13) = (   0.4999998   0.4999998   0.0000000  )
        14           Au  tau(  14) = (   0.4999998   0.7499996   0.2499999  )
        15           Au  tau(  15) = (   0.7499996   0.4999998   0.2499999  )
        16           Au  tau(  16) = (   0.7499996   0.7499996   0.0000000  )

   Crystallographic axes

     site n.     atom                  positions (cryst. coord.)
         1           Au  tau(   1) = (  0.0000000  0.0000000  0.0000000  )
         2           Au  tau(   2) = (  0.0000000  0.2499999  0.1471739  )
         3           Au  tau(   3) = (  0.2499999  0.0000000  0.1471739  )
         4           Au  tau(   4) = (  0.2499999  0.2499999  0.0000000  )
         5           Au  tau(   5) = (  0.0000000  0.4999998  0.0000000  )
         6           Au  tau(   6) = (  0.0000000  0.7499996  0.1471739  )
         7           Au  tau(   7) = (  0.2499999  0.4999998  0.1471739  )
         8           Au  tau(   8) = (  0.2499999  0.7499996  0.0000000  )
         9           Au  tau(   9) = (  0.4999998  0.0000000  0.0000000  )
        10           Au  tau(  10) = (  0.4999998  0.2499999  0.1471739  )
        11           Au  tau(  11) = (  0.7499996  0.0000000  0.1471739  )
        12           Au  tau(  12) = (  0.7499996  0.2499999  0.0000000  )
        13           Au  tau(  13) = (  0.4999998  0.4999998  0.0000000  )
        14           Au  tau(  14) = (  0.4999998  0.7499996  0.1471739  )
        15           Au  tau(  15) = (  0.7499996  0.4999998  0.1471739  )
        16           Au  tau(  16) = (  0.7499996  0.7499996  0.0000000  )

     number of k points=     6  Gaussian smearing, width (Ry)=  0.0030
                       cart. coord. in units 2pi/alat
        k(    1) = (   0.0000000   0.0000000   0.0000000), wk =   0.1250000
        k(    2) = (   0.0000000   0.2500000   0.0000000), wk =   0.5000000
        k(    3) = (   0.0000000  -0.5000000   0.0000000), wk =   0.2500000
        k(    4) = (   0.2500000   0.2500000   0.0000000), wk =   0.5000000
        k(    5) = (   0.2500000  -0.5000000   0.0000000), wk =   0.5000000
        k(    6) = (  -0.5000000  -0.5000000   0.0000000), wk =   0.1250000

                       cryst. coord.
        k(    1) = (   0.0000000   0.0000000   0.0000000), wk =   0.1250000
        k(    2) = (   0.0000000   0.2500000   0.0000000), wk =   0.5000000
        k(    3) = (   0.0000000  -0.5000000   0.0000000), wk =   0.2500000
        k(    4) = (   0.2500000   0.2500000   0.0000000), wk =   0.5000000
        k(    5) = (   0.2500000  -0.5000000   0.0000000), wk =   0.5000000
        k(    6) = (  -0.5000000  -0.5000000   0.0000000), wk =   0.1250000

     Dense  grid:   583927 G-vectors     FFT dimensions: (  90,  90, 150)

     Smooth grid:   147845 G-vectors     FFT dimensions: (  60,  60,  96)

     Dynamical RAM for                 wfc:       0.93 MB

     Dynamical RAM for     wfc (w. buffer):       6.53 MB

     Dynamical RAM for           str. fact:       0.28 MB

     Dynamical RAM for           local pot:       0.00 MB

     Dynamical RAM for          nlocal pot:       3.52 MB

     Dynamical RAM for                qrad:       2.60 MB

     Dynamical RAM for          rho,v,vnew:       1.76 MB

     Dynamical RAM for               rhoin:       0.59 MB

     Dynamical RAM for            rho*nmix:       4.46 MB

     Dynamical RAM for           G-vectors:       1.08 MB

     Dynamical RAM for          h,s,v(r/c):       0.08 MB

     Dynamical RAM for          <psi|beta>:       0.65 MB

     Dynamical RAM for                 psi:       1.87 MB

     Dynamical RAM for                hpsi:       1.87 MB

     Dynamical RAM for                spsi:       1.87 MB

     Dynamical RAM for      wfcinit/wfcrot:       3.01 MB

     Dynamical RAM for           addusdens:     102.48 MB

     Dynamical RAM for          addusforce:     111.09 MB

     Dynamical RAM for         addusstress:     105.54 MB

     Estimated static dynamical RAM per process >      22.92 MB

     Estimated max dynamical RAM per process >     134.01 MB

     Estimated total dynamical RAM >       4.19 GB

     Check: negative core charge=   -0.000004

     Initial potential from superposition of free atoms

     starting charge  175.99804, renormalised to  176.00000

     negative rho (up, down):  2.645E-05 0.000E+00
     Starting wfcs are  144 randomized atomic wfcs

     total cpu time spent up to now is        1.8 secs

     Self-consistent Calculation

     iteration #  1     ecut=    30.00 Ry     beta= 0.30
     Davidson diagonalization with overlap
     ethr =  1.00E-02,  avg # of iterations =  2.0

     Threshold (ethr) on eigenvalues was too large:
     Diagonalizing with lowered threshold

     Davidson diagonalization with overlap
     ethr =  3.91E-04,  avg # of iterations =  2.0

     negative rho (up, down):  1.620E-05 0.000E+00

     total cpu time spent up to now is        5.6 secs

     total energy              =   -1839.11807281 Ry
     estimated scf accuracy    <       0.78918446 Ry

     iteration #  2     ecut=    30.00 Ry     beta= 0.30
     Davidson diagonalization with overlap
     ethr =  4.48E-04,  avg # of iterations =  2.0

     negative rho (up, down):  2.863E-05 0.000E+00

     total cpu time spent up to now is        7.6 secs

     total energy              =   -1839.17421170 Ry
     estimated scf accuracy    <       0.08559851 Ry

     iteration #  3     ecut=    30.00 Ry     beta= 0.30
     Davidson diagonalization with overlap
     ethr =  4.86E-05,  avg # of iterations =  2.8

     negative rho (up, down):  3.999E-05 0.000E+00

     total cpu time spent up to now is       10.0 secs

     total energy              =   -1839.19722442 Ry
     estimated scf accuracy    <       0.00863678 Ry

     iteration #  4     ecut=    30.00 Ry     beta= 0.30
     Davidson diagonalization with overlap
     ethr =  4.91E-06,  avg # of iterations =  8.7

     negative rho (up, down):  5.663E-05 0.000E+00

     total cpu time spent up to now is       12.7 secs

     total energy              =   -1839.19754584 Ry
     estimated scf accuracy    <       0.00324073 Ry

     iteration #  5     ecut=    30.00 Ry     beta= 0.30
     Davidson diagonalization with overlap
     ethr =  1.84E-06,  avg # of iterations =  2.0

     negative rho (up, down):  6.239E-05 0.000E+00

     total cpu time spent up to now is       14.8 secs

     total energy              =   -1839.19769558 Ry
     estimated scf accuracy    <       0.00045409 Ry

     iteration #  6     ecut=    30.00 Ry     beta= 0.30
     Davidson diagonalization with overlap
     ethr =  2.58E-07,  avg # of iterations =  2.3

     negative rho (up, down):  6.602E-05 0.000E+00

     total cpu time spent up to now is       17.0 secs

     total energy              =   -1839.19777157 Ry
     estimated scf accuracy    <       0.00009402 Ry

     iteration #  7     ecut=    30.00 Ry     beta= 0.30
     Davidson diagonalization with overlap
     ethr =  5.34E-08,  avg # of iterations =  3.7

     negative rho (up, down):  6.854E-05 0.000E+00

     total cpu time spent up to now is       19.5 secs

     total energy              =   -1839.19779519 Ry
     estimated scf accuracy    <       0.00001589 Ry

     iteration #  8     ecut=    30.00 Ry     beta= 0.30
     Davidson diagonalization with overlap
     ethr =  9.03E-09,  avg # of iterations =  3.3

     negative rho (up, down):  7.048E-05 0.000E+00

     total cpu time spent up to now is       21.9 secs

     total energy              =   -1839.19779623 Ry
     estimated scf accuracy    <       0.00000397 Ry

     iteration #  9     ecut=    30.00 Ry     beta= 0.30
     Davidson diagonalization with overlap
     ethr =  2.26E-09,  avg # of iterations =  4.3

     negative rho (up, down):  7.165E-05 0.000E+00

     total cpu time spent up to now is       24.6 secs

     total energy              =   -1839.19779835 Ry
     estimated scf accuracy    <       0.00000146 Ry

     iteration # 10     ecut=    30.00 Ry     beta= 0.30
     Davidson diagonalization with overlap
     ethr =  8.29E-10,  avg # of iterations =  2.0

     negative rho (up, down):  7.245E-05 0.000E+00

     total cpu time spent up to now is       26.7 secs

     total energy              =   -1839.19779781 Ry
     estimated scf accuracy    <       0.00000116 Ry

     iteration # 11     ecut=    30.00 Ry     beta= 0.30
     Davidson diagonalization with overlap
     ethr =  6.60E-10,  avg # of iterations =  2.0

     negative rho (up, down):  7.469E-05 0.000E+00

     total cpu time spent up to now is       29.0 secs

     End of self-consistent calculation

          k = 0.0000 0.0000 0.0000 ( 18535 PWs)   bands (ev):

    -6.7909  -5.0735  -4.9220  -4.9219  -4.9219  -4.9219  -4.8412  -4.8412
    -4.8412  -4.8412  -4.8301  -4.6852  -4.6851  -4.3616  -4.3616  -3.9918
    -3.9918  -3.9918  -3.9918  -3.8898  -3.8138  -3.8138  -3.8138  -3.8138
    -3.4915  -3.4915  -3.4914  -3.4914  -3.3548  -3.3548  -3.3548  -3.3548
    -2.9519  -2.9519  -2.9519  -2.9519  -2.9310  -2.9310  -2.9310  -2.9310
    -2.8607  -2.8607  -2.8607  -2.8607  -2.7977  -2.7977  -2.7977  -2.7977
    -2.7283  -2.7283  -2.5210  -2.3009  -2.3009  -2.3009  -2.3008  -2.1378
    -2.1378  -2.1378  -2.1378  -2.0635  -2.0635  -2.0499  -2.0499  -2.0499
    -2.0499  -1.7930  -1.6732  -1.6731  -1.5059  -1.5059  -1.5059  -1.5059
    -1.5043  -1.5043  -1.5042  -1.5042  -1.4937  -1.4937  -1.4937  -1.4937
    -1.3418  -1.3418  -1.2723  -1.2307  -0.7103  -0.7102   0.8860   0.8860
     0.8860   0.8860   1.0533   1.0533   1.0533   1.0533   2.1847   3.3232
     3.3232   3.3232   3.3232   3.9936   3.9936   5.2064   5.4535   5.4535
     5.4537   5.4537

     occupation numbers 
     1.0000   1.0000   1.0000   1.0000   1.0000   1.0000   1.0000   1.0000
     1.0000   1.0000   1.0000   1.0000   1.0000   1.0000   1.0000   1.0000
     1.0000   1.0000   1.0000   1.0000   1.0000   1.0000   1.0000   1.0000
     1.0000   1.0000   1.0000   1.0000   1.0000   1.0000   1.0000   1.0000
     1.0000   1.0000   1.0000   1.0000   1.0000   1.0000   1.0000   1.0000
     1.0000   1.0000   1.0000   1.0000   1.0000   1.0000   1.0000   1.0000
     1.0000   1.0000   1.0000   1.0000   1.0000   1.0000   1.0000   1.0000
     1.0000   1.0000   1.0000   1.0000   1.0000   1.0000   1.0000   1.0000
     1.0000   1.0000   1.0000   1.0000   1.0000   1.0000   1.0000   1.0000
     1.0000   1.0000   1.0000   1.0000   1.0000   1.0000   1.0000   1.0000
     1.0000   1.0000   1.0000   1.0000   1.0000   1.0000   0.0000   0.0000
     0.0000   0.0000   0.0000   0.0000   0.0000   0.0000   0.0000   0.0000
     0.0000   0.0000   0.0000   0.0000   0.0000   0.0000   0.0000   0.0000
     0.0000   0.0000

          k = 0.0000 0.2500 0.0000 ( 18469 PWs)   bands (ev):

    -6.6313  -5.4983  -4.9572  -4.9572  -4.9430  -4.8615  -4.8615  -4.7730
    -4.7730  -4.7516  -4.6228  -4.5929  -4.5222  -4.3218  -4.3197  -4.2068
    -4.1846  -4.1846  -4.0816  -4.0538  -4.0136  -3.8147  -3.8130  -3.7633
    -3.7633  -3.5863  -3.5863  -3.3450  -3.3450  -3.3193  -3.3193  -3.2419
    -3.0748  -3.0502  -3.0502  -3.0474  -2.9553  -2.9553  -2.9544  -2.9544
    -2.9303  -2.9303  -2.8551  -2.8124  -2.7799  -2.6585  -2.6585  -2.5399
    -2.5212  -2.4961  -2.4369  -2.3616  -2.1359  -2.1299  -2.1172  -2.1172
    -2.0736  -2.0736  -2.0685  -2.0504  -2.0504  -1.9452  -1.9452  -1.9346
    -1.9177  -1.8976  -1.7177  -1.6902  -1.6508  -1.6508  -1.6313  -1.6313
    -1.6115  -1.4946  -1.4946  -1.4644  -1.4605  -1.4349  -1.3577  -1.3540
    -1.3197  -1.3197  -1.0328  -1.0249  -0.8692  -0.8635  -0.2312  -0.2312
     0.1663   1.1710   1.1710   2.1775   2.2220   2.2221   2.4084   2.4084
     2.4851   2.4906   4.2761   4.4427   4.5783   4.5784   5.0090   5.3530
     5.5327   5.5329

     occupation numbers 
     1.0000   1.0000   1.0000   1.0000   1.0000   1.0000   1.0000   1.0000
     1.0000   1.0000   1.0000   1.0000   1.0000   1.0000   1.0000   1.0000
     1.0000   1.0000   1.0000   1.0000   1.0000   1.0000   1.0000   1.0000
     1.0000   1.0000   1.0000   1.0000   1.0000   1.0000   1.0000   1.0000
     1.0000   1.0000   1.0000   1.0000   1.0000   1.0000   1.0000   1.0000
     1.0000   1.0000   1.0000   1.0000   1.0000   1.0000   1.0000   1.0000
     1.0000   1.0000   1.0000   1.0000   1.0000   1.0000   1.0000   1.0000
     1.0000   1.0000   1.0000   1.0000   1.0000   1.0000   1.0000   1.0000
     1.0000   1.0000   1.0000   1.0000   1.0000   1.0000   1.0000   1.0000
     1.0000   1.0000   1.0000   1.0000   1.0000   1.0000   1.0000   1.0000
     1.0000   1.0000   1.0000   1.0000   1.0000   1.0000   1.0000   1.0000
     0.9997   0.0000   0.0000   0.0000   0.0000   0.0000   0.0000   0.0000
     0.0000   0.0000   0.0000   0.0000   0.0000   0.0000   0.0000   0.0000
     0.0000   0.0000

          k = 0.0000-0.5000 0.0000 ( 18412 PWs)   bands (ev):

    -6.1726  -6.1725  -4.9157  -4.9157  -4.9157  -4.9156  -4.5768  -4.5767
    -4.5262  -4.5262  -4.5107  -4.5107  -4.5099  -4.5099  -4.5099  -4.5099
    -4.3407  -4.3406  -4.2039  -4.2039  -4.1575  -4.1575  -3.6681  -3.6681
    -3.6680  -3.6680  -3.5937  -3.5936  -3.1950  -3.1950  -3.1950  -3.1950
    -3.1196  -3.1196  -3.1195  -3.1195  -3.0623  -3.0623  -3.0623  -3.0623
    -2.9687  -2.9687  -2.9134  -2.9133  -2.5392  -2.5392  -2.3192  -2.3192
    -2.3116  -2.3116  -2.3116  -2.3116  -2.2999  -2.2999  -2.1220  -2.1220
    -1.8893  -1.8892  -1.8611  -1.8611  -1.8610  -1.8610  -1.8206  -1.8206
    -1.8206  -1.8206  -1.7517  -1.7517  -1.7139  -1.7139  -1.6526  -1.6526
    -1.6525  -1.6525  -1.5863  -1.5862  -1.5668  -1.5668  -1.4016  -1.4015
    -1.2093  -1.2093  -0.9671  -0.9671  -0.9671  -0.9670  -0.5321  -0.5321
     0.5904   0.5904   1.5577   1.5577   1.5577   1.5578   3.2569   3.2569
     3.5568   3.5568   4.1338   4.1339   4.1339   4.1339   5.5043   5.5044
     5.5044   5.5045

     occupation numbers 
     1.0000   1.0000   1.0000   1.0000   1.0000   1.0000   1.0000   1.0000
     1.0000   1.0000   1.0000   1.0000   1.0000   1.0000   1.0000   1.0000
     1.0000   1.0000   1.0000   1.0000   1.0000   1.0000   1.0000   1.0000
     1.0000   1.0000   1.0000   1.0000   1.0000   1.0000   1.0000   1.0000
     1.0000   1.0000   1.0000   1.0000   1.0000   1.0000   1.0000   1.0000
     1.0000   1.0000   1.0000   1.0000   1.0000   1.0000   1.0000   1.0000
     1.0000   1.0000   1.0000   1.0000   1.0000   1.0000   1.0000   1.0000
     1.0000   1.0000   1.0000   1.0000   1.0000   1.0000   1.0000   1.0000
     1.0000   1.0000   1.0000   1.0000   1.0000   1.0000   1.0000   1.0000
     1.0000   1.0000   1.0000   1.0000   1.0000   1.0000   1.0000   1.0000
     1.0000   1.0000   1.0000   1.0000   1.0000   1.0000   1.0000   1.0000
     0.0000   0.0000   0.0000   0.0000   0.0000   0.0000   0.0000   0.0000
     0.0000   0.0000   0.0000   0.0000   0.0000   0.0000   0.0000   0.0000
     0.0000   0.0000

          k = 0.2500 0.2500 0.0000 ( 18475 PWs)   bands (ev):

    -6.4836  -5.4568  -5.4568  -5.1785  -4.9044  -4.7767  -4.6859  -4.6859
    -4.5959  -4.5362  -4.5362  -4.5270  -4.5270  -4.4487  -4.4487  -4.2850
    -4.2850  -4.1650  -4.1650  -3.9177  -3.9177  -3.8596  -3.8596  -3.7643
    -3.7643  -3.7368  -3.6855  -3.4475  -3.4474  -3.2501  -3.1951  -3.1951
    -3.1735  -3.1735  -3.1052  -3.1052  -2.9764  -2.8964  -2.8964  -2.8387
    -2.8387  -2.8063  -2.7957  -2.7957  -2.7250  -2.7105  -2.6140  -2.6140
    -2.5258  -2.4721  -2.4313  -2.4313  -2.3011  -2.3011  -2.1332  -2.1332
    -2.1317  -2.0108  -1.9517  -1.9517  -1.8825  -1.8825  -1.8506  -1.8506
    -1.8468  -1.8468  -1.7802  -1.7801  -1.7438  -1.7438  -1.6968  -1.6967
    -1.6441  -1.6412  -1.4967  -1.4967  -1.3993  -1.3616  -1.3616  -1.3441
    -1.2902  -1.2747  -1.1326  -1.1326  -0.8900  -0.5071  -0.5071   0.2476
     0.2476   1.1964   1.2253   1.2253   2.3477   2.3477   2.7596   2.8644
     2.8645   3.7011   3.7011   3.7495   4.4188   4.4188   5.0623   5.1282
     5.1282   5.4986

     occupation numbers 
     1.0000   1.0000   1.0000   1.0000   1.0000   1.0000   1.0000   1.0000
     1.0000   1.0000   1.0000   1.0000   1.0000   1.0000   1.0000   1.0000
     1.0000   1.0000   1.0000   1.0000   1.0000   1.0000   1.0000   1.0000
     1.0000   1.0000   1.0000   1.0000   1.0000   1.0000   1.0000   1.0000
     1.0000   1.0000   1.0000   1.0000   1.0000   1.0000   1.0000   1.0000
     1.0000   1.0000   1.0000   1.0000   1.0000   1.0000   1.0000   1.0000
     1.0000   1.0000   1.0000   1.0000   1.0000   1.0000   1.0000   1.0000
     1.0000   1.0000   1.0000   1.0000   1.0000   1.0000   1.0000   1.0000
     1.0000   1.0000   1.0000   1.0000   1.0000   1.0000   1.0000   1.0000
     1.0000   1.0000   1.0000   1.0000   1.0000   1.0000   1.0000   1.0000
     1.0000   1.0000   1.0000   1.0000   1.0000   1.0000   1.0000   0.7430
     0.7430   0.0000   0.0000   0.0000   0.0000   0.0000   0.0000   0.0000
     0.0000   0.0000   0.0000   0.0000   0.0000   0.0000   0.0000   0.0000
     0.0000   0.0000

          k = 0.2500-0.5000 0.0000 ( 18486 PWs)   bands (ev):

    -6.0635  -6.0634  -5.3450  -5.3450  -4.7358  -4.7358  -4.6675  -4.6675
    -4.5802  -4.5802  -4.4614  -4.4613  -4.3998  -4.3998  -4.3228  -4.3227
    -4.2279  -4.2279  -4.1652  -4.1651  -4.1148  -4.1148  -3.7372  -3.7372
    -3.7019  -3.7018  -3.5953  -3.5952  -3.5100  -3.5099  -3.1592  -3.1592
    -3.1350  -3.1350  -3.0775  -3.0775  -3.0002  -3.0002  -2.9132  -2.9132
    -2.7630  -2.7630  -2.7610  -2.7609  -2.7372  -2.7371  -2.5573  -2.5573
    -2.3350  -2.3349  -2.3143  -2.3142  -2.2484  -2.2484  -2.2458  -2.2458
    -2.0891  -2.0891  -2.0583  -2.0582  -1.8863  -1.8863  -1.8338  -1.8338
    -1.8071  -1.8071  -1.7778  -1.7778  -1.7690  -1.7689  -1.7303  -1.7303
    -1.5942  -1.5942  -1.5817  -1.5816  -1.5731  -1.5731  -1.3343  -1.3343
    -1.2975  -1.2975  -1.2918  -1.2917  -0.4439  -0.4438   0.2659   0.2660
     0.5488   0.5489   1.0163   1.0163   2.6948   2.6948   3.2482   3.2483
     3.3848   3.3849   3.4591   3.4591   4.5669   4.5670   4.7848   4.7848
     5.3810   5.3810

     occupation numbers 
     1.0000   1.0000   1.0000   1.0000   1.0000   1.0000   1.0000   1.0000
     1.0000   1.0000   1.0000   1.0000   1.0000   1.0000   1.0000   1.0000
     1.0000   1.0000   1.0000   1.0000   1.0000   1.0000   1.0000   1.0000
     1.0000   1.0000   1.0000   1.0000   1.0000   1.0000   1.0000   1.0000
     1.0000   1.0000   1.0000   1.0000   1.0000   1.0000   1.0000   1.0000
     1.0000   1.0000   1.0000   1.0000   1.0000   1.0000   1.0000   1.0000
     1.0000   1.0000   1.0000   1.0000   1.0000   1.0000   1.0000   1.0000
     1.0000   1.0000   1.0000   1.0000   1.0000   1.0000   1.0000   1.0000
     1.0000   1.0000   1.0000   1.0000   1.0000   1.0000   1.0000   1.0000
     1.0000   1.0000   1.0000   1.0000   1.0000   1.0000   1.0000   1.0000
     1.0000   1.0000   1.0000   1.0000   1.0000   1.0000   0.5074   0.5069
     0.0000   0.0000   0.0000   0.0000   0.0000   0.0000   0.0000   0.0000
     0.0000   0.0000   0.0000   0.0000   0.0000   0.0000   0.0000   0.0000
     0.0000   0.0000

          k =-0.5000-0.5000 0.0000 ( 18528 PWs)   bands (ev):

    -5.7627  -5.7626  -5.7626  -5.7625  -4.7655  -4.7655  -4.7655  -4.7654
    -4.3899  -4.3899  -4.3899  -4.3899  -4.3899  -4.3898  -4.3898  -4.3898
    -3.9490  -3.9490  -3.9490  -3.9490  -3.9489  -3.9489  -3.9489  -3.9489
    -3.8809  -3.8808  -3.8808  -3.8808  -3.2940  -3.2940  -3.2939  -3.2939
    -3.1695  -3.1695  -3.1695  -3.1695  -2.7120  -2.7120  -2.7120  -2.7120
    -2.6776  -2.6776  -2.6776  -2.6776  -2.6775  -2.6775  -2.6775  -2.6775
    -2.5680  -2.5679  -2.5679  -2.5679  -2.4013  -2.4013  -2.4013  -2.4012
    -2.0163  -2.0163  -2.0163  -2.0163  -2.0162  -2.0162  -2.0162  -2.0162
    -1.9253  -1.9253  -1.9253  -1.9253  -1.6143  -1.6143  -1.6143  -1.6142
    -1.5224  -1.5224  -1.5224  -1.5224  -1.5224  -1.5224  -1.5224  -1.5224
    -1.2544  -1.2544  -1.2544  -1.2544  -0.1123  -0.1122  -0.1122  -0.1121
     1.8963   1.8963   1.8963   1.8963   1.8963   1.8964   1.8964   1.8964
     4.0115   4.0115   4.0115   4.0115   4.7343   4.7344   4.7344   4.7344
     4.7344   4.7344

     occupation numbers 
     1.0000   1.0000   1.0000   1.0000   1.0000   1.0000   1.0000   1.0000
     1.0000   1.0000   1.0000   1.0000   1.0000   1.0000   1.0000   1.0000
     1.0000   1.0000   1.0000   1.0000   1.0000   1.0000   1.0000   1.0000
     1.0000   1.0000   1.0000   1.0000   1.0000   1.0000   1.0000   1.0000
     1.0000   1.0000   1.0000   1.0000   1.0000   1.0000   1.0000   1.0000
     1.0000   1.0000   1.0000   1.0000   1.0000   1.0000   1.0000   1.0000
     1.0000   1.0000   1.0000   1.0000   1.0000   1.0000   1.0000   1.0000
     1.0000   1.0000   1.0000   1.0000   1.0000   1.0000   1.0000   1.0000
     1.0000   1.0000   1.0000   1.0000   1.0000   1.0000   1.0000   1.0000
     1.0000   1.0000   1.0000   1.0000   1.0000   1.0000   1.0000   1.0000
     1.0000   1.0000   1.0000   1.0000   1.0000   1.0000   1.0000   1.0000
     0.0000   0.0000   0.0000   0.0000   0.0000   0.0000   0.0000   0.0000
     0.0000   0.0000   0.0000   0.0000   0.0000   0.0000   0.0000   0.0000
     0.0000   0.0000

     the Fermi energy is     0.2665 ev

!    total energy              =   -1839.19779811 Ry
     estimated scf accuracy    <       0.00000004 Ry
     smearing contrib. (-TS)   =      -0.00153114 Ry
     internal energy E=F+TS    =   -1839.19626696 Ry

     The total energy is F=E-TS. E is the sum of the following terms:
     one-electron contribution =   -3564.32463946 Ry
     hartree contribution      =    1909.62111920 Ry
     xc contribution           =    -994.38817122 Ry
     ewald contribution        =     809.89542452 Ry

     convergence has been achieved in  11 iterations

     negative rho (up, down):  7.469E-05 0.000E+00

     Forces acting on atoms (cartesian axes, Ry/au):

     atom    1 type  1   force =     0.00000000    0.00000000    0.00767322
     atom    2 type  1   force =     0.00000000    0.00000792   -0.00763558
     atom    3 type  1   force =     0.00000792    0.00000000   -0.00763558
     atom    4 type  1   force =     0.00000384    0.00000384    0.00760035
     atom    5 type  1   force =     0.00000000    0.00000000    0.00767888
     atom    6 type  1   force =     0.00000000   -0.00000792   -0.00763558
     atom    7 type  1   force =    -0.00000209    0.00000000   -0.00764159
     atom    8 type  1   force =     0.00000384   -0.00000384    0.00760035
     atom    9 type  1   force =     0.00000000    0.00000000    0.00767888
     atom   10 type  1   force =     0.00000000   -0.00000209   -0.00764159
     atom   11 type  1   force =    -0.00000792    0.00000000   -0.00763558
     atom   12 type  1   force =    -0.00000384    0.00000384    0.00760035
     atom   13 type  1   force =     0.00000000    0.00000000    0.00767633
     atom   14 type  1   force =     0.00000000    0.00000209   -0.00764159
     atom   15 type  1   force =     0.00000209    0.00000000   -0.00764159
     atom   16 type  1   force =    -0.00000384   -0.00000384    0.00760035
     The non-local contrib.  to forces
     atom    1 type  1   force =     0.00000000    0.00000000    0.02149191
     atom    2 type  1   force =     0.00000000    0.00000301   -0.02145213
     atom    3 type  1   force =     0.00000301    0.00000000   -0.02145213
     atom    4 type  1   force =     0.00000060    0.00000060    0.02149387
     atom    5 type  1   force =     0.00000000    0.00000000    0.02149204
     atom    6 type  1   force =     0.00000000   -0.00000301   -0.02145213
     atom    7 type  1   force =    -0.00000322    0.00000000   -0.02145410
     atom    8 type  1   force =     0.00000060   -0.00000060    0.02149387
     atom    9 type  1   force =     0.00000000    0.00000000    0.02149204
     atom   10 type  1   force =     0.00000000   -0.00000322   -0.02145410
     atom   11 type  1   force =    -0.00000301    0.00000000   -0.02145213
     atom   12 type  1   force =    -0.00000060    0.00000060    0.02149387
     atom   13 type  1   force =     0.00000000    0.00000000    0.02148798
     atom   14 type  1   force =     0.00000000    0.00000322   -0.02145410
     atom   15 type  1   force =     0.00000322    0.00000000   -0.02145410
     atom   16 type  1   force =    -0.00000060   -0.00000060    0.02149387
     The ionic contribution  to forces
     atom    1 type  1   force =    -0.00003826   -0.00003826  -32.60809070
     atom    2 type  1   force =    -0.00003826   -0.00001489   32.60810726
     atom    3 type  1   force =    -0.00001489   -0.00003826   32.60810726
     atom    4 type  1   force =    -0.00001489   -0.00001489  -32.60812381
     atom    5 type  1   force =    -0.00003826    0.00001489  -32.60810726
     atom    6 type  1   force =    -0.00003826    0.00003826   32.60809070
     atom    7 type  1   force =    -0.00001489    0.00001489   32.60812381
     atom    8 type  1   force =    -0.00001489    0.00003826  -32.60810726
     atom    9 type  1   force =     0.00001489   -0.00003826  -32.60810726
     atom   10 type  1   force =     0.00001489   -0.00001489   32.60812381
     atom   11 type  1   force =     0.00003826   -0.00003826   32.60809070
     atom   12 type  1   force =     0.00003826   -0.00001489  -32.60810726
     atom   13 type  1   force =     0.00001489    0.00001489  -32.60812381
     atom   14 type  1   force =     0.00001489    0.00003826   32.60810726
     atom   15 type  1   force =     0.00003826    0.00001489   32.60810726
     atom   16 type  1   force =     0.00003826    0.00003826  -32.60809070
     The local contribution  to forces
     atom    1 type  1   force =    -0.00000000   -0.00000000   32.56810484
     atom    2 type  1   force =    -0.00000000    0.00004535  -32.56826366
     atom    3 type  1   force =     0.00004535   -0.00000000  -32.56826366
     atom    4 type  1   force =     0.00005972    0.00005972   32.56811342
     atom    5 type  1   force =    -0.00000000    0.00005007   32.56811820
     atom    6 type  1   force =    -0.00000000    0.00005478  -32.56826366
     atom    7 type  1   force =     0.00007848    0.00005007  -32.56826646
     atom    8 type  1   force =     0.00005972    0.00004042   32.56811342
     atom    9 type  1   force =     0.00005007   -0.00000000   32.56811820
     atom   10 type  1   force =     0.00005007    0.00007848  -32.56826646
     atom   11 type  1   force =     0.00005478   -0.00000000  -32.56826366
     atom   12 type  1   force =     0.00004042    0.00005972   32.56811342
     atom   13 type  1   force =     0.00005007    0.00005007   32.56812480
     atom   14 type  1   force =     0.00005007    0.00002166  -32.56826646
     atom   15 type  1   force =     0.00002166    0.00005007  -32.56826646
     atom   16 type  1   force =     0.00004042    0.00004042   32.56811342
     The core correction contribution to forces
     atom    1 type  1   force =     0.00000000    0.00000000    0.02589328
     atom    2 type  1   force =    -0.00000000    0.00001433   -0.02586075
     atom    3 type  1   force =     0.00001433   -0.00000000   -0.02586075
     atom    4 type  1   force =     0.00001491    0.00001491    0.02581462
     atom    5 type  1   force =     0.00000000    0.00001505    0.02589290
     atom    6 type  1   force =    -0.00000000    0.00001577   -0.02586075
     atom    7 type  1   force =     0.00001566    0.00001504   -0.02586058
     atom    8 type  1   force =     0.00001490    0.00001519    0.02581462
     atom    9 type  1   force =     0.00001505    0.00000000    0.02589290
     atom   10 type  1   force =     0.00001504    0.00001566   -0.02586058
     atom   11 type  1   force =     0.00001577   -0.00000000   -0.02586075
     atom   12 type  1   force =     0.00001519    0.00001490    0.02581462
     atom   13 type  1   force =     0.00001505    0.00001505    0.02589497
     atom   14 type  1   force =     0.00001504    0.00001444   -0.02586058
     atom   15 type  1   force =     0.00001444    0.00001504   -0.02586058
     atom   16 type  1   force =     0.00001519    0.00001519    0.02581462
     The Hubbard contrib.    to forces
     atom    1 type  1   force =     0.00000000    0.00000000    0.00000000
     atom    2 type  1   force =     0.00000000    0.00000000    0.00000000
     atom    3 type  1   force =     0.00000000    0.00000000    0.00000000
     atom    4 type  1   force =     0.00000000    0.00000000    0.00000000
     atom    5 type  1   force =     0.00000000    0.00000000    0.00000000
     atom    6 type  1   force =     0.00000000    0.00000000    0.00000000
     atom    7 type  1   force =     0.00000000    0.00000000    0.00000000
     atom    8 type  1   force =     0.00000000    0.00000000    0.00000000
     atom    9 type  1   force =     0.00000000    0.00000000    0.00000000
     atom   10 type  1   force =     0.00000000    0.00000000    0.00000000
     atom   11 type  1   force =     0.00000000    0.00000000    0.00000000
     atom   12 type  1   force =     0.00000000    0.00000000    0.00000000
     atom   13 type  1   force =     0.00000000    0.00000000    0.00000000
     atom   14 type  1   force =     0.00000000    0.00000000    0.00000000
     atom   15 type  1   force =     0.00000000    0.00000000    0.00000000
     atom   16 type  1   force =     0.00000000    0.00000000    0.00000000
     The SCF correction term to forces
     atom    1 type  1   force =     0.00000001    0.00000001    0.00030027
     atom    2 type  1   force =     0.00000001    0.00003690   -0.00013164
     atom    3 type  1   force =     0.00003690    0.00000001   -0.00013164
     atom    4 type  1   force =     0.00002028    0.00002028    0.00031207
     atom    5 type  1   force =     0.00000001   -0.00000002    0.00030938
     atom    6 type  1   force =     0.00000001   -0.00003694   -0.00013163
     atom    7 type  1   force =    -0.00000134   -0.00000002   -0.00014960
     atom    8 type  1   force =     0.00002028   -0.00002033    0.00031207
     atom    9 type  1   force =    -0.00000002    0.00000001    0.00030938
     atom   10 type  1   force =    -0.00000002   -0.00000134   -0.00014960
     atom   11 type  1   force =    -0.00003694    0.00000001   -0.00013163
     atom   12 type  1   force =    -0.00002033    0.00002028    0.00031207
     atom   13 type  1   force =    -0.00000002   -0.00000002    0.00031878
     atom   14 type  1   force =    -0.00000002    0.00000130   -0.00014960
     atom   15 type  1   force =     0.00000130   -0.00000002   -0.00014960
     atom   16 type  1   force =    -0.00002032   -0.00002032    0.00031206

     Total force =     0.030555     Total SCF correction =     0.000970


     Computing stress (Cartesian axis) and pressure


     negative rho (up, down):  7.469E-05 0.000E+00
          total   stress  (Ry/bohr**3)                   (kbar)     P=      -28.38
  -0.00026996   0.00000000   0.00000000          -39.71        0.00        0.00
   0.00000000  -0.00026996   0.00000000            0.00      -39.71        0.00
   0.00000000   0.00000000  -0.00003878            0.00        0.00       -5.70

     kinetic stress (kbar)   5912.68      0.00      0.00
                                0.00   5912.68      0.00
                                0.00      0.00   6004.32

     local   stress (kbar) -73172.26     -0.00      0.00
                               -0.00 -73172.26      0.00
                                0.00      0.00  86792.15

     nonloc. stress (kbar)  -3794.16      0.00      0.00
                                0.00  -3794.16      0.00
                                0.00      0.00  -3796.39

     hartree stress (kbar)  39667.60     -0.00      0.00
                               -0.00  39667.60      0.00
                                0.00      0.00 -37129.78

     exc-cor stress (kbar)  15342.92      0.00     -0.00
                                0.00  15342.92     -0.00
                               -0.00     -0.00  15336.75

     corecor stress (kbar) -17698.64      0.00      0.00
                                0.00 -17698.64      0.00
                                0.00      0.00 -17708.32

     ewald   stress (kbar)  33702.15     -0.00     -0.00
                               -0.00  33702.15     -0.00
                               -0.00     -0.00 -49504.44

     hubbard stress (kbar)      0.00      0.00      0.00
                                0.00      0.00      0.00
                                0.00      0.00      0.00

     DFT-D   stress (kbar)      0.00      0.00      0.00
                                0.00      0.00      0.00
                                0.00      0.00      0.00

     XDM     stress (kbar)      0.00      0.00      0.00
                                0.00      0.00      0.00
                                0.00      0.00      0.00

     dft-nl  stress (kbar)      0.00      0.00      0.00
                                0.00      0.00      0.00
                                0.00      0.00      0.00

     TS-vdW  stress (kbar)      0.00      0.00      0.00
                                0.00      0.00      0.00
                                0.00      0.00      0.00



     BFGS Geometry Optimization
     Energy error            =      0.0E+00
     Gradient error          =      7.7E-03

     number of scf cycles    =   1
     number of bfgs steps    =   0

     energy   new            =   -1839.1977981068 Ry

     new trust radius        =       0.0076788777 bohr
     new conv_thr            =       0.0000010000 Ry


ATOMIC_POSITIONS (angstrom)
Au            0.0000000000        0.0000000000        0.0040604954
Au            0.0000000000        2.0856481913        2.0816034230
Au            2.0856481913        0.0000000000        2.0816034230
Au            2.0856460294        2.0856460294        0.0040219301
Au            0.0000000000        4.1712880000        0.0040634871
Au            0.0000000000        6.2569278087        2.0816034230
Au            2.0856428938        4.1712880000        2.0816002453
Au            2.0856460294        6.2569299706        0.0040219301
Au            4.1712880000        0.0000000000        0.0040634871
Au            4.1712880000        2.0856428938        2.0816002453
Au            6.2569278087        0.0000000000        2.0816034230
Au            6.2569299706        2.0856460294        0.0040219301
Au            4.1712880000        4.1712880000        0.0040621365
Au            4.1712880000        6.2569331062        2.0816002453
Au            6.2569331062        4.1712880000        2.0816002453
Au            6.2569299706        6.2569299706        0.0040219301



     Writing output data file ./surface.save/
     NEW-OLD atomic charge density approx. for the potential

     Check: negative core charge=   -0.000004

     negative rho (up, down):  7.489E-05 0.000E+00

     total cpu time spent up to now is       35.2 secs

     Self-consistent Calculation

     iteration #  1     ecut=    30.00 Ry     beta= 0.30
     Davidson diagonalization with overlap
     ethr =  1.00E-06,  avg # of iterations =  5.2

     Threshold (ethr) on eigenvalues was too large:
     Diagonalizing with lowered threshold

     Davidson diagonalization with overlap
     ethr =  4.16E-08,  avg # of iterations =  5.7

     negative rho (up, down):  7.504E-05 0.000E+00

     total cpu time spent up to now is       42.3 secs

     total energy              =   -1839.19869401 Ry
     estimated scf accuracy    <       0.00002663 Ry

     iteration #  2     ecut=    30.00 Ry     beta= 0.30
     Davidson diagonalization with overlap
     ethr =  1.51E-08,  avg # of iterations =  3.7

     negative rho (up, down):  7.514E-05 0.000E+00

     total cpu time spent up to now is       45.0 secs

     total energy              =   -1839.19869853 Ry
     estimated scf accuracy    <       0.00000892 Ry

     iteration #  3     ecut=    30.00 Ry     beta= 0.30
     Davidson diagonalization with overlap
     ethr =  5.07E-09,  avg # of iterations =  2.0

     negative rho (up, down):  7.519E-05 0.000E+00

     total cpu time spent up to now is       47.0 secs

     total energy              =   -1839.19869835 Ry
     estimated scf accuracy    <       0.00000343 Ry

     iteration #  4     ecut=    30.00 Ry     beta= 0.30
     Davidson diagonalization with overlap
     ethr =  1.95E-09,  avg # of iterations =  2.0

     negative rho (up, down):  7.525E-05 0.000E+00

     total cpu time spent up to now is       49.2 secs

     total energy              =   -1839.19869869 Ry
     estimated scf accuracy    <       0.00000177 Ry

     iteration #  5     ecut=    30.00 Ry     beta= 0.30
     Davidson diagonalization with overlap
     ethr =  1.00E-09,  avg # of iterations =  2.0

     negative rho (up, down):  7.539E-05 0.000E+00

     total cpu time spent up to now is       51.1 secs

     End of self-consistent calculation

          k = 0.0000 0.0000 0.0000 ( 18535 PWs)   bands (ev):

    -6.8004  -5.0755  -4.9305  -4.9305  -4.9305  -4.9305  -4.8507  -4.8507
    -4.8506  -4.8506  -4.8348  -4.6909  -4.6907  -4.3721  -4.3721  -4.0029
    -4.0029  -4.0029  -4.0029  -3.8782  -3.8193  -3.8193  -3.8192  -3.8192
    -3.4843  -3.4843  -3.4842  -3.4842  -3.3617  -3.3617  -3.3617  -3.3617
    -2.9511  -2.9511  -2.9511  -2.9511  -2.9368  -2.9368  -2.9367  -2.9367
    -2.8676  -2.8676  -2.8675  -2.8675  -2.7915  -2.7915  -2.7915  -2.7915
    -2.7358  -2.7358  -2.5075  -2.2932  -2.2932  -2.2932  -2.2932  -2.1272
    -2.1272  -2.1272  -2.1272  -2.0540  -2.0540  -2.0498  -2.0498  -2.0498
    -2.0498  -1.7954  -1.6655  -1.6653  -1.4935  -1.4935  -1.4934  -1.4934
    -1.4926  -1.4926  -1.4925  -1.4925  -1.4847  -1.4847  -1.4847  -1.4847
    -1.3336  -1.3336  -1.2629  -1.2238  -0.7058  -0.7055   0.8882   0.8882
     0.8882   0.8883   1.0719   1.0719   1.0719   1.0719   2.1964   3.3340
     3.3340   3.3342   3.3342   3.9922   3.9922   5.2044   5.4621   5.4621
     5.4624   5.4624

     occupation numbers 
     1.0000   1.0000   1.0000   1.0000   1.0000   1.0000   1.0000   1.0000
     1.0000   1.0000   1.0000   1.0000   1.0000   1.0000   1.0000   1.0000
     1.0000   1.0000   1.0000   1.0000   1.0000   1.0000   1.0000   1.0000
     1.0000   1.0000   1.0000   1.0000   1.0000   1.0000   1.0000   1.0000
     1.0000   1.0000   1.0000   1.0000   1.0000   1.0000   1.0000   1.0000
     1.0000   1.0000   1.0000   1.0000   1.0000   1.0000   1.0000   1.0000
     1.0000   1.0000   1.0000   1.0000   1.0000   1.0000   1.0000   1.0000
     1.0000   1.0000   1.0000   1.0000   1.0000   1.0000   1.0000   1.0000
     1.0000   1.0000   1.0000   1.0000   1.0000   1.0000   1.0000   1.0000
     1.0000   1.0000   1.0000   1.0000   1.0000   1.0000   1.0000   1.0000
     1.0000   1.0000   1.0000   1.0000   1.0000   1.0000   0.0000   0.0000
     0.0000   0.0000   0.0000   0.0000   0.0000   0.0000   0.0000   0.0000
     0.0000   0.0000   0.0000   0.0000   0.0000   0.0000   0.0000   0.0000
     0.0000   0.0000

          k = 0.0000 0.2500 0.0000 ( 18469 PWs)   bands (ev):

    -6.6409  -5.5084  -4.9658  -4.9658  -4.9454  -4.8708  -4.8707  -4.7818
    -4.7817  -4.7565  -4.6285  -4.5986  -4.5298  -4.3321  -4.3303  -4.2144
    -4.1947  -4.1947  -4.0859  -4.0654  -4.0196  -3.8211  -3.8034  -3.7679
    -3.7679  -3.5822  -3.5821  -3.3363  -3.3363  -3.3261  -3.3261  -3.2333
    -3.0815  -3.0528  -3.0527  -3.0509  -2.9618  -2.9617  -2.9606  -2.9606
    -2.9220  -2.9220  -2.8591  -2.8195  -2.7871  -2.6613  -2.6612  -2.5398
    -2.5078  -2.4870  -2.4346  -2.3577  -2.1266  -2.1224  -2.1186  -2.1186
    -2.0678  -2.0678  -2.0599  -2.0403  -2.0403  -1.9437  -1.9436  -1.9374
    -1.9111  -1.8875  -1.7113  -1.6825  -1.6402  -1.6402  -1.6226  -1.6226
    -1.6033  -1.4840  -1.4840  -1.4499  -1.4491  -1.4271  -1.3491  -1.3447
    -1.3079  -1.3078  -1.0252  -1.0210  -0.8626  -0.8572  -0.2272  -0.2272
     0.1805   1.1889   1.1890   2.1985   2.2319   2.2320   2.4137   2.4137
     2.4866   2.5022   4.2862   4.4421   4.5865   4.5865   5.0232   5.3511
     5.5409   5.5412

     occupation numbers 
     1.0000   1.0000   1.0000   1.0000   1.0000   1.0000   1.0000   1.0000
     1.0000   1.0000   1.0000   1.0000   1.0000   1.0000   1.0000   1.0000
     1.0000   1.0000   1.0000   1.0000   1.0000   1.0000   1.0000   1.0000
     1.0000   1.0000   1.0000   1.0000   1.0000   1.0000   1.0000   1.0000
     1.0000   1.0000   1.0000   1.0000   1.0000   1.0000   1.0000   1.0000
     1.0000   1.0000   1.0000   1.0000   1.0000   1.0000   1.0000   1.0000
     1.0000   1.0000   1.0000   1.0000   1.0000   1.0000   1.0000   1.0000
     1.0000   1.0000   1.0000   1.0000   1.0000   1.0000   1.0000   1.0000
     1.0000   1.0000   1.0000   1.0000   1.0000   1.0000   1.0000   1.0000
     1.0000   1.0000   1.0000   1.0000   1.0000   1.0000   1.0000   1.0000
     1.0000   1.0000   1.0000   1.0000   1.0000   1.0000   1.0000   1.0000
     0.9995   0.0000   0.0000   0.0000   0.0000   0.0000   0.0000   0.0000
     0.0000   0.0000   0.0000   0.0000   0.0000   0.0000   0.0000   0.0000
     0.0000   0.0000

          k = 0.0000-0.5000 0.0000 ( 18412 PWs)   bands (ev):

    -6.1824  -6.1823  -4.9246  -4.9246  -4.9246  -4.9245  -4.5800  -4.5799
    -4.5318  -4.5317  -4.5192  -4.5191  -4.5191  -4.5191  -4.5170  -4.5170
    -4.3465  -4.3464  -4.2149  -4.2149  -4.1668  -4.1668  -3.6688  -3.6688
    -3.6688  -3.6687  -3.5834  -3.5833  -3.1981  -3.1980  -3.1980  -3.1980
    -3.1136  -3.1136  -3.1136  -3.1135  -3.0666  -3.0666  -3.0665  -3.0665
    -2.9754  -2.9753  -2.9195  -2.9195  -2.5263  -2.5263  -2.3234  -2.3233
    -2.3142  -2.3141  -2.3141  -2.3141  -2.2924  -2.2923  -2.1162  -2.1161
    -1.8851  -1.8850  -1.8509  -1.8509  -1.8509  -1.8509  -1.8169  -1.8169
    -1.8169  -1.8168  -1.7442  -1.7442  -1.7110  -1.7110  -1.6439  -1.6438
    -1.6438  -1.6438  -1.5768  -1.5767  -1.5595  -1.5594  -1.3919  -1.3919
    -1.1983  -1.1983  -0.9586  -0.9586  -0.9586  -0.9586  -0.5220  -0.5220
     0.5936   0.5937   1.5738   1.5738   1.5738   1.5739   3.2680   3.2681
     3.5768   3.5768   4.1358   4.1358   4.1358   4.1359   5.5108   5.5108
     5.5109   5.5109

     occupation numbers 
     1.0000   1.0000   1.0000   1.0000   1.0000   1.0000   1.0000   1.0000
     1.0000   1.0000   1.0000   1.0000   1.0000   1.0000   1.0000   1.0000
     1.0000   1.0000   1.0000   1.0000   1.0000   1.0000   1.0000   1.0000
     1.0000   1.0000   1.0000   1.0000   1.0000   1.0000   1.0000   1.0000
     1.0000   1.0000   1.0000   1.0000   1.0000   1.0000   1.0000   1.0000
     1.0000   1.0000   1.0000   1.0000   1.0000   1.0000   1.0000   1.0000
     1.0000   1.0000   1.0000   1.0000   1.0000   1.0000   1.0000   1.0000
     1.0000   1.0000   1.0000   1.0000   1.0000   1.0000   1.0000   1.0000
     1.0000   1.0000   1.0000   1.0000   1.0000   1.0000   1.0000   1.0000
     1.0000   1.0000   1.0000   1.0000   1.0000   1.0000   1.0000   1.0000
     1.0000   1.0000   1.0000   1.0000   1.0000   1.0000   1.0000   1.0000
     0.0000   0.0000   0.0000   0.0000   0.0000   0.0000   0.0000   0.0000
     0.0000   0.0000   0.0000   0.0000   0.0000   0.0000   0.0000   0.0000
     0.0000   0.0000

          k = 0.2500 0.2500 0.0000 ( 18475 PWs)   bands (ev):

    -6.4933  -5.4666  -5.4665  -5.1870  -4.9075  -4.7847  -4.6951  -4.6951
    -4.6005  -4.5421  -4.5419  -4.5351  -4.5351  -4.4550  -4.4550  -4.2953
    -4.2952  -4.1754  -4.1754  -3.9242  -3.9242  -3.8654  -3.8654  -3.7722
    -3.7722  -3.7259  -3.6840  -3.4471  -3.4470  -3.2394  -3.1868  -3.1868
    -3.1742  -3.1742  -3.1067  -3.1067  -2.9822  -2.9044  -2.9044  -2.8410
    -2.8410  -2.8143  -2.7958  -2.7958  -2.7311  -2.7184  -2.6090  -2.6090
    -2.5124  -2.4746  -2.4242  -2.4242  -2.2939  -2.2938  -2.1305  -2.1254
    -2.1253  -2.0143  -1.9480  -1.9480  -1.8735  -1.8735  -1.8479  -1.8478
    -1.8364  -1.8364  -1.7736  -1.7734  -1.7365  -1.7365  -1.6876  -1.6875
    -1.6341  -1.6334  -1.4863  -1.4863  -1.3895  -1.3502  -1.3502  -1.3329
    -1.2838  -1.2654  -1.1266  -1.1264  -0.8819  -0.5011  -0.5011   0.2619
     0.2619   1.2103   1.2281   1.2281   2.3672   2.3672   2.7711   2.8669
     2.8670   3.7134   3.7135   3.7509   4.4284   4.4284   5.0683   5.1311
     5.1311   5.4968

     occupation numbers 
     1.0000   1.0000   1.0000   1.0000   1.0000   1.0000   1.0000   1.0000
     1.0000   1.0000   1.0000   1.0000   1.0000   1.0000   1.0000   1.0000
     1.0000   1.0000   1.0000   1.0000   1.0000   1.0000   1.0000   1.0000
     1.0000   1.0000   1.0000   1.0000   1.0000   1.0000   1.0000   1.0000
     1.0000   1.0000   1.0000   1.0000   1.0000   1.0000   1.0000   1.0000
     1.0000   1.0000   1.0000   1.0000   1.0000   1.0000   1.0000   1.0000
     1.0000   1.0000   1.0000   1.0000   1.0000   1.0000   1.0000   1.0000
     1.0000   1.0000   1.0000   1.0000   1.0000   1.0000   1.0000   1.0000
     1.0000   1.0000   1.0000   1.0000   1.0000   1.0000   1.0000   1.0000
     1.0000   1.0000   1.0000   1.0000   1.0000   1.0000   1.0000   1.0000
     1.0000   1.0000   1.0000   1.0000   1.0000   1.0000   1.0000   0.6799
     0.6799   0.0000   0.0000   0.0000   0.0000   0.0000   0.0000   0.0000
     0.0000   0.0000   0.0000   0.0000   0.0000   0.0000   0.0000   0.0000
     0.0000   0.0000

          k = 0.2500-0.5000 0.0000 ( 18486 PWs)   bands (ev):

    -6.0732  -6.0731  -5.3540  -5.3540  -4.7401  -4.7401  -4.6745  -4.6745
    -4.5890  -4.5890  -4.4682  -4.4682  -4.4096  -4.4096  -4.3300  -4.3299
    -4.2331  -4.2331  -4.1745  -4.1744  -4.1237  -4.1237  -3.7399  -3.7399
    -3.7073  -3.7073  -3.6024  -3.6023  -3.5001  -3.5000  -3.1489  -3.1489
    -3.1391  -3.1391  -3.0755  -3.0755  -2.9938  -2.9938  -2.9166  -2.9166
    -2.7710  -2.7710  -2.7653  -2.7652  -2.7441  -2.7441  -2.5449  -2.5449
    -2.3328  -2.3328  -2.3181  -2.3181  -2.2452  -2.2452  -2.2428  -2.2428
    -2.0795  -2.0795  -2.0509  -2.0509  -1.8762  -1.8762  -1.8245  -1.8244
    -1.7996  -1.7995  -1.7739  -1.7738  -1.7626  -1.7626  -1.7196  -1.7195
    -1.5877  -1.5877  -1.5716  -1.5716  -1.5689  -1.5689  -1.3248  -1.3248
    -1.2860  -1.2860  -1.2815  -1.2815  -0.4334  -0.4334   0.2702   0.2703
     0.5630   0.5631   1.0196   1.0197   2.7056   2.7056   3.2563   3.2563
     3.3960   3.3960   3.4700   3.4700   4.5771   4.5771   4.7930   4.7931
     5.3830   5.3830

     occupation numbers 
     1.0000   1.0000   1.0000   1.0000   1.0000   1.0000   1.0000   1.0000
     1.0000   1.0000   1.0000   1.0000   1.0000   1.0000   1.0000   1.0000
     1.0000   1.0000   1.0000   1.0000   1.0000   1.0000   1.0000   1.0000
     1.0000   1.0000   1.0000   1.0000   1.0000   1.0000   1.0000   1.0000
     1.0000   1.0000   1.0000   1.0000   1.0000   1.0000   1.0000   1.0000
     1.0000   1.0000   1.0000   1.0000   1.0000   1.0000   1.0000   1.0000
     1.0000   1.0000   1.0000   1.0000   1.0000   1.0000   1.0000   1.0000
     1.0000   1.0000   1.0000   1.0000   1.0000   1.0000   1.0000   1.0000
     1.0000   1.0000   1.0000   1.0000   1.0000   1.0000   1.0000   1.0000
     1.0000   1.0000   1.0000   1.0000   1.0000   1.0000   1.0000   1.0000
     1.0000   1.0000   1.0000   1.0000   1.0000   1.0000   0.5706   0.5701
     0.0000   0.0000   0.0000   0.0000   0.0000   0.0000   0.0000   0.0000
     0.0000   0.0000   0.0000   0.0000   0.0000   0.0000   0.0000   0.0000
     0.0000   0.0000

          k =-0.5000-0.5000 0.0000 ( 18528 PWs)   bands (ev):

    -5.7720  -5.7719  -5.7719  -5.7718  -4.7707  -4.7707  -4.7707  -4.7707
    -4.3985  -4.3985  -4.3985  -4.3984  -4.3984  -4.3984  -4.3984  -4.3983
    -3.9566  -3.9566  -3.9566  -3.9565  -3.9565  -3.9564  -3.9564  -3.9564
    -3.8866  -3.8865  -3.8865  -3.8865  -3.2845  -3.2845  -3.2845  -3.2845
    -3.1712  -3.1712  -3.1712  -3.1712  -2.7207  -2.7207  -2.7207  -2.7206
    -2.6751  -2.6750  -2.6750  -2.6750  -2.6748  -2.6748  -2.6748  -2.6748
    -2.5575  -2.5574  -2.5574  -2.5574  -2.4064  -2.4064  -2.4064  -2.4063
    -2.0056  -2.0056  -2.0055  -2.0055  -2.0055  -2.0054  -2.0054  -2.0054
    -1.9190  -1.9190  -1.9190  -1.9190  -1.6036  -1.6036  -1.6036  -1.6035
    -1.5166  -1.5166  -1.5166  -1.5166  -1.5165  -1.5165  -1.5165  -1.5165
    -1.2436  -1.2435  -1.2435  -1.2435  -0.1004  -0.1004  -0.1004  -0.1003
     1.8996   1.8997   1.8997   1.8997   1.8997   1.8998   1.8998   1.8998
     4.0215   4.0215   4.0215   4.0215   4.7493   4.7493   4.7493   4.7493
     4.7494   4.7494

     occupation numbers 
     1.0000   1.0000   1.0000   1.0000   1.0000   1.0000   1.0000   1.0000
     1.0000   1.0000   1.0000   1.0000   1.0000   1.0000   1.0000   1.0000
     1.0000   1.0000   1.0000   1.0000   1.0000   1.0000   1.0000   1.0000
     1.0000   1.0000   1.0000   1.0000   1.0000   1.0000   1.0000   1.0000
     1.0000   1.0000   1.0000   1.0000   1.0000   1.0000   1.0000   1.0000
     1.0000   1.0000   1.0000   1.0000   1.0000   1.0000   1.0000   1.0000
     1.0000   1.0000   1.0000   1.0000   1.0000   1.0000   1.0000   1.0000
     1.0000   1.0000   1.0000   1.0000   1.0000   1.0000   1.0000   1.0000
     1.0000   1.0000   1.0000   1.0000   1.0000   1.0000   1.0000   1.0000
     1.0000   1.0000   1.0000   1.0000   1.0000   1.0000   1.0000   1.0000
     1.0000   1.0000   1.0000   1.0000   1.0000   1.0000   1.0000   1.0000
     0.0000   0.0000   0.0000   0.0000   0.0000   0.0000   0.0000   0.0000
     0.0000   0.0000   0.0000   0.0000   0.0000   0.0000   0.0000   0.0000
     0.0000   0.0000

     the Fermi energy is     0.2754 ev

!    total energy              =   -1839.19869878 Ry
     estimated scf accuracy    <       0.00000025 Ry
     smearing contrib. (-TS)   =      -0.00159370 Ry
     internal energy E=F+TS    =   -1839.19710508 Ry

     The total energy is F=E-TS. E is the sum of the following terms:
     one-electron contribution =   -3572.31890849 Ry
     hartree contribution      =    1913.65152094 Ry
     xc contribution           =    -994.41195751 Ry
     ewald contribution        =     813.88223999 Ry

     convergence has been achieved in   5 iterations

     negative rho (up, down):  7.539E-05 0.000E+00

     Forces acting on atoms (cartesian axes, Ry/au):

     atom    1 type  1   force =     0.00000000    0.00000000    0.00699161
     atom    2 type  1   force =     0.00000000   -0.00000148   -0.00695551
     atom    3 type  1   force =    -0.00000148    0.00000000   -0.00695551
     atom    4 type  1   force =     0.00000091    0.00000091    0.00691769
     atom    5 type  1   force =     0.00000000    0.00000000    0.00699216
     atom    6 type  1   force =     0.00000000    0.00000148   -0.00695551
     atom    7 type  1   force =     0.00000223    0.00000000   -0.00695503
     atom    8 type  1   force =     0.00000091   -0.00000091    0.00691769
     atom    9 type  1   force =     0.00000000    0.00000000    0.00699216
     atom   10 type  1   force =     0.00000000    0.00000223   -0.00695503
     atom   11 type  1   force =     0.00000148    0.00000000   -0.00695551
     atom   12 type  1   force =    -0.00000091    0.00000091    0.00691769
     atom   13 type  1   force =     0.00000000    0.00000000    0.00699546
     atom   14 type  1   force =     0.00000000   -0.00000223   -0.00695503
     atom   15 type  1   force =    -0.00000223    0.00000000   -0.00695503
     atom   16 type  1   force =    -0.00000091   -0.00000091    0.00691769
     The non-local contrib.  to forces
     atom    1 type  1   force =     0.00000000    0.00000000    0.02066482
     atom    2 type  1   force =     0.00000000   -0.00000018   -0.02069817
     atom    3 type  1   force =    -0.00000018    0.00000000   -0.02069817
     atom    4 type  1   force =     0.00000112    0.00000112    0.02067022
     atom    5 type  1   force =     0.00000000    0.00000000    0.02067054
     atom    6 type  1   force =     0.00000000    0.00000018   -0.02069817
     atom    7 type  1   force =     0.00000287    0.00000000   -0.02070024
     atom    8 type  1   force =     0.00000112   -0.00000112    0.02067022
     atom    9 type  1   force =     0.00000000    0.00000000    0.02067054
     atom   10 type  1   force =     0.00000000    0.00000287   -0.02070024
     atom   11 type  1   force =     0.00000018    0.00000000   -0.02069817
     atom   12 type  1   force =    -0.00000112    0.00000112    0.02067022
     atom   13 type  1   force =     0.00000000    0.00000000    0.02067271
     atom   14 type  1   force =     0.00000000   -0.00000287   -0.02070024
     atom   15 type  1   force =    -0.00000287    0.00000000   -0.02070024
     atom   16 type  1   force =    -0.00000112   -0.00000112    0.02067022
     The ionic contribution  to forces
     atom    1 type  1   force =    -0.00003838   -0.00003838  -32.63271690
     atom    2 type  1   force =    -0.00003838   -0.00014928   32.63320397
     atom    3 type  1   force =    -0.00014928   -0.00003838   32.63320397
     atom    4 type  1   force =    -0.00007873   -0.00007873  -32.63363763
     atom    5 type  1   force =    -0.00003838    0.00001491  -32.63279542
     atom    6 type  1   force =    -0.00003838    0.00017275   32.63318731
     atom    7 type  1   force =     0.00002344    0.00001491   32.63321032
     atom    8 type  1   force =    -0.00007873    0.00010219  -32.63362098
     atom    9 type  1   force =     0.00001491   -0.00003838  -32.63279542
     atom   10 type  1   force =     0.00001491    0.00002344   32.63321032
     atom   11 type  1   force =     0.00017275   -0.00003838   32.63318731
     atom   12 type  1   force =     0.00010219   -0.00007873  -32.63362098
     atom   13 type  1   force =     0.00001491    0.00001491  -32.63279890
     atom   14 type  1   force =     0.00001491    0.00000002   32.63319367
     atom   15 type  1   force =     0.00000002    0.00001491   32.63319367
     atom   16 type  1   force =     0.00010219    0.00010219  -32.63360432
     The local contribution  to forces
     atom    1 type  1   force =    -0.00000000   -0.00000000   32.59368172
     atom    2 type  1   force =    -0.00000000    0.00020945  -32.59371851
     atom    3 type  1   force =     0.00020945   -0.00000000  -32.59371851
     atom    4 type  1   force =     0.00013736    0.00013736   32.59458250
     atom    5 type  1   force =    -0.00000000    0.00005001   32.59375605
     atom    6 type  1   force =    -0.00000000   -0.00010943  -32.59371851
     atom    7 type  1   force =     0.00003012    0.00005001  -32.59372280
     atom    8 type  1   force =     0.00013736   -0.00003733   32.59458250
     atom    9 type  1   force =     0.00005001   -0.00000000   32.59375605
     atom   10 type  1   force =     0.00005001    0.00003012  -32.59372280
     atom   11 type  1   force =    -0.00010943   -0.00000000  -32.59371851
     atom   12 type  1   force =    -0.00003733    0.00013736   32.59458250
     atom   13 type  1   force =     0.00005001    0.00005001   32.59375835
     atom   14 type  1   force =     0.00005001    0.00006990  -32.59372280
     atom   15 type  1   force =     0.00006990    0.00005001  -32.59372280
     atom   16 type  1   force =    -0.00003733   -0.00003733   32.59458250
     The core correction contribution to forces
     atom    1 type  1   force =    -0.00000000   -0.00000000    0.02624930
     atom    2 type  1   force =    -0.00000000    0.00001528   -0.02621957
     atom    3 type  1   force =     0.00001528   -0.00000000   -0.02621957
     atom    4 type  1   force =     0.00001510    0.00001510    0.02616641
     atom    5 type  1   force =    -0.00000000    0.00001505    0.02625008
     atom    6 type  1   force =     0.00000000    0.00001482   -0.02621957
     atom    7 type  1   force =     0.00001445    0.00001504   -0.02621993
     atom    8 type  1   force =     0.00001510    0.00001500    0.02616641
     atom    9 type  1   force =     0.00001505   -0.00000000    0.02625008
     atom   10 type  1   force =     0.00001504    0.00001445   -0.02621993
     atom   11 type  1   force =     0.00001482    0.00000000   -0.02621957
     atom   12 type  1   force =     0.00001500    0.00001510    0.02616641
     atom   13 type  1   force =     0.00001504    0.00001504    0.02624984
     atom   14 type  1   force =     0.00001504    0.00001565   -0.02621993
     atom   15 type  1   force =     0.00001565    0.00001504   -0.02621993
     atom   16 type  1   force =     0.00001500    0.00001500    0.02616640
     The Hubbard contrib.    to forces
     atom    1 type  1   force =     0.00000000    0.00000000    0.00000000
     atom    2 type  1   force =     0.00000000    0.00000000    0.00000000
     atom    3 type  1   force =     0.00000000    0.00000000    0.00000000
     atom    4 type  1   force =     0.00000000    0.00000000    0.00000000
     atom    5 type  1   force =     0.00000000    0.00000000    0.00000000
     atom    6 type  1   force =     0.00000000    0.00000000    0.00000000
     atom    7 type  1   force =     0.00000000    0.00000000    0.00000000
     atom    8 type  1   force =     0.00000000    0.00000000    0.00000000
     atom    9 type  1   force =     0.00000000    0.00000000    0.00000000
     atom   10 type  1   force =     0.00000000    0.00000000    0.00000000
     atom   11 type  1   force =     0.00000000    0.00000000    0.00000000
     atom   12 type  1   force =     0.00000000    0.00000000    0.00000000
     atom   13 type  1   force =     0.00000000    0.00000000    0.00000000
     atom   14 type  1   force =     0.00000000    0.00000000    0.00000000
     atom   15 type  1   force =     0.00000000    0.00000000    0.00000000
     atom   16 type  1   force =     0.00000000    0.00000000    0.00000000
     The SCF correction term to forces
     atom    1 type  1   force =     0.00000001    0.00000001   -0.00092873
     atom    2 type  1   force =     0.00000001    0.00000005    0.00044370
     atom    3 type  1   force =     0.00000005    0.00000001    0.00044370
     atom    4 type  1   force =     0.00000285    0.00000285   -0.00092185
     atom    5 type  1   force =     0.00000001    0.00000000   -0.00093049
     atom    6 type  1   force =     0.00000001   -0.00000005    0.00044371
     atom    7 type  1   force =     0.00000813    0.00000000    0.00044454
     atom    8 type  1   force =     0.00000285   -0.00000285   -0.00092186
     atom    9 type  1   force =     0.00000000    0.00000001   -0.00093049
     atom   10 type  1   force =     0.00000000    0.00000813    0.00044454
     atom   11 type  1   force =    -0.00000005    0.00000001    0.00044371
     atom   12 type  1   force =    -0.00000285    0.00000285   -0.00092186
     atom   13 type  1   force =     0.00000000    0.00000000   -0.00092793
     atom   14 type  1   force =     0.00000000   -0.00000813    0.00044455
     atom   15 type  1   force =    -0.00000813    0.00000000    0.00044455
     atom   16 type  1   force =    -0.00000285   -0.00000285   -0.00092187

     Total force =     0.027821     Total SCF correction =     0.002904
     SCF correction compared to forces is large: reduce conv_thr to get better values


     Computing stress (Cartesian axis) and pressure


     negative rho (up, down):  7.539E-05 0.000E+00
          total   stress  (Ry/bohr**3)                   (kbar)     P=      -27.40
  -0.00026227   0.00000000   0.00000000          -38.58        0.00        0.00
   0.00000000  -0.00026227   0.00000000            0.00      -38.58        0.00
   0.00000000   0.00000000  -0.00003434            0.00        0.00       -5.05

     kinetic stress (kbar)   5913.60      0.00      0.00
                                0.00   5913.60      0.00
                                0.00      0.00   6003.34

     local   stress (kbar) -73365.46     -0.00     -0.00
                               -0.00 -73365.46     -0.00
                               -0.00     -0.00  87001.94

     nonloc. stress (kbar)  -3793.39      0.00      0.00
                                0.00  -3793.39      0.00
                                0.00      0.00  -3795.99

     hartree stress (kbar)  39761.66      0.00     -0.00
                                0.00  39761.66     -0.00
                               -0.00     -0.00 -37228.83

     exc-cor stress (kbar)  15342.82      0.00     -0.00
                                0.00  15342.82     -0.00
                               -0.00     -0.00  15336.60

     corecor stress (kbar) -17698.78     -0.00      0.00
                               -0.00 -17698.78      0.00
                                0.00      0.00 -17708.18

     ewald   stress (kbar)  33800.96      0.00      0.00
                                0.00  33800.96      0.00
                                0.00      0.00 -49613.94

     hubbard stress (kbar)      0.00      0.00      0.00
                                0.00      0.00      0.00
                                0.00      0.00      0.00

     DFT-D   stress (kbar)      0.00      0.00      0.00
                                0.00      0.00      0.00
                                0.00      0.00      0.00

     XDM     stress (kbar)      0.00      0.00      0.00
                                0.00      0.00      0.00
                                0.00      0.00      0.00

     dft-nl  stress (kbar)      0.00      0.00      0.00
                                0.00      0.00      0.00
                                0.00      0.00      0.00

     TS-vdW  stress (kbar)      0.00      0.00      0.00
                                0.00      0.00      0.00
                                0.00      0.00      0.00


     Energy error            =      9.0E-04
     Gradient error          =      7.0E-03

     number of scf cycles    =   2
     number of bfgs steps    =   1

     energy   old            =   -1839.1977981068 Ry
     energy   new            =   -1839.1986987823 Ry

     CASE: energy  _new < energy  _old


     WARNING: bfgs curvature condition failed, Theta= 0.879
     new trust radius        =       0.0084467655 bohr
     new conv_thr            =       0.0000000700 Ry


ATOMIC_POSITIONS (angstrom)
Au            0.0000000000        0.0000000000        0.0085280116
Au            0.0000000000        2.0856484541        2.0771587250
Au            2.0856484541        0.0000000000        2.0771587250
Au            2.0856469699        2.0856469699        0.0084432563
Au            0.0000000000        4.1712880000        0.0085319953
Au            0.0000000000        6.2569275459        2.0771587250
Au            2.0856437430        4.1712880000        2.0771550250
Au            2.0856469699        6.2569290301        0.0084432563
Au            4.1712880000        0.0000000000        0.0085319953
Au            4.1712880000        2.0856437430        2.0771550250
Au            6.2569275459        0.0000000000        2.0771587250
Au            6.2569290301        2.0856469699        0.0084432563
Au            4.1712880000        4.1712880000        0.0085319723
Au            4.1712880000        6.2569322570        2.0771550250
Au            6.2569322570        4.1712880000        2.0771550250
Au            6.2569290301        6.2569290301        0.0084432563



     Writing output data file ./surface.save/
     NEW-OLD atomic charge density approx. for the potential

     Check: negative core charge=   -0.000004

     negative rho (up, down):  7.558E-05 0.000E+00

     total cpu time spent up to now is       57.2 secs

     Self-consistent Calculation

     iteration #  1     ecut=    30.00 Ry     beta= 0.30
     Davidson diagonalization with overlap
     ethr =  1.00E-06,  avg # of iterations =  5.7

     Threshold (ethr) on eigenvalues was too large:
     Diagonalizing with lowered threshold

     Davidson diagonalization with overlap
     ethr =  3.74E-08,  avg # of iterations =  6.0

     negative rho (up, down):  7.569E-05 0.000E+00

     total cpu time spent up to now is       64.4 secs

     total energy              =   -1839.19960759 Ry
     estimated scf accuracy    <       0.00002465 Ry

     iteration #  2     ecut=    30.00 Ry     beta= 0.30
     Davidson diagonalization with overlap
     ethr =  1.40E-08,  avg # of iterations =  2.0

     negative rho (up, down):  7.578E-05 0.000E+00

     total cpu time spent up to now is       66.4 secs

     total energy              =   -1839.19960832 Ry
     estimated scf accuracy    <       0.00001033 Ry

     iteration #  3     ecut=    30.00 Ry     beta= 0.30
     Davidson diagonalization with overlap
     ethr =  5.87E-09,  avg # of iterations =  2.0

     negative rho (up, down):  7.581E-05 0.000E+00

     total cpu time spent up to now is       68.4 secs

     total energy              =   -1839.19960825 Ry
     estimated scf accuracy    <       0.00000594 Ry

     iteration #  4     ecut=    30.00 Ry     beta= 0.30
     Davidson diagonalization with overlap
     ethr =  3.37E-09,  avg # of iterations =  2.0

     negative rho (up, down):  7.585E-05 0.000E+00

     total cpu time spent up to now is       70.3 secs

     total energy              =   -1839.19960898 Ry
     estimated scf accuracy    <       0.00000103 Ry

     iteration #  5     ecut=    30.00 Ry     beta= 0.30
     Davidson diagonalization with overlap
     ethr =  5.84E-10,  avg # of iterations =  2.0

     negative rho (up, down):  7.587E-05 0.000E+00

     total cpu time spent up to now is       72.4 secs

     total energy              =   -1839.19960913 Ry
     estimated scf accuracy    <       0.00000012 Ry

     iteration #  6     ecut=    30.00 Ry     beta= 0.30
     Davidson diagonalization with overlap
     ethr =  6.83E-11,  avg # of iterations =  4.0

     negative rho (up, down):  7.597E-05 0.000E+00

     total cpu time spent up to now is       74.9 secs

     End of self-consistent calculation

          k = 0.0000 0.0000 0.0000 ( 18535 PWs)   bands (ev):

    -6.8101  -5.0773  -4.9393  -4.9393  -4.9393  -4.9393  -4.8602  -4.8601
    -4.8600  -4.8600  -4.8397  -4.6966  -4.6966  -4.3829  -4.3829  -4.0146
    -4.0145  -4.0145  -4.0145  -3.8648  -3.8248  -3.8248  -3.8246  -3.8246
    -3.4755  -3.4755  -3.4755  -3.4755  -3.3690  -3.3690  -3.3690  -3.3690
    -2.9498  -2.9498  -2.9497  -2.9497  -2.9428  -2.9428  -2.9427  -2.9427
    -2.8748  -2.8747  -2.8747  -2.8747  -2.7843  -2.7843  -2.7842  -2.7842
    -2.7435  -2.7435  -2.4920  -2.2842  -2.2842  -2.2841  -2.2841  -2.1150
    -2.1149  -2.1149  -2.1149  -2.0494  -2.0493  -2.0493  -2.0493  -2.0430
    -2.0430  -1.7977  -1.6562  -1.6562  -1.4809  -1.4809  -1.4809  -1.4809
    -1.4773  -1.4773  -1.4772  -1.4772  -1.4743  -1.4743  -1.4743  -1.4743
    -1.3240  -1.3240  -1.2520  -1.2160  -0.7002  -0.7002   0.8911   0.8912
     0.8912   0.8913   1.0925   1.0925   1.0926   1.0926   2.2094   3.3461
     3.3461   3.3461   3.3462   3.9912   3.9912   5.2005   5.4715   5.4715
     5.4719   5.4719

     occupation numbers 
     1.0000   1.0000   1.0000   1.0000   1.0000   1.0000   1.0000   1.0000
     1.0000   1.0000   1.0000   1.0000   1.0000   1.0000   1.0000   1.0000
     1.0000   1.0000   1.0000   1.0000   1.0000   1.0000   1.0000   1.0000
     1.0000   1.0000   1.0000   1.0000   1.0000   1.0000   1.0000   1.0000
     1.0000   1.0000   1.0000   1.0000   1.0000   1.0000   1.0000   1.0000
     1.0000   1.0000   1.0000   1.0000   1.0000   1.0000   1.0000   1.0000
     1.0000   1.0000   1.0000   1.0000   1.0000   1.0000   1.0000   1.0000
     1.0000   1.0000   1.0000   1.0000   1.0000   1.0000   1.0000   1.0000
     1.0000   1.0000   1.0000   1.0000   1.0000   1.0000   1.0000   1.0000
     1.0000   1.0000   1.0000   1.0000   1.0000   1.0000   1.0000   1.0000
     1.0000   1.0000   1.0000   1.0000   1.0000   1.0000   0.0000   0.0000
     0.0000   0.0000   0.0000   0.0000   0.0000   0.0000   0.0000   0.0000
     0.0000   0.0000   0.0000   0.0000   0.0000   0.0000   0.0000   0.0000
     0.0000   0.0000

          k = 0.0000 0.2500 0.0000 ( 18469 PWs)   bands (ev):

    -6.6506  -5.5185  -4.9746  -4.9745  -4.9474  -4.8801  -4.8800  -4.7908
    -4.7908  -4.7614  -4.6342  -4.6044  -4.5373  -4.3427  -4.3413  -4.2223
    -4.2052  -4.2051  -4.0900  -4.0774  -4.0256  -3.8297  -3.7904  -3.7723
    -3.7722  -3.5770  -3.5769  -3.3333  -3.3333  -3.3260  -3.3260  -3.2233
    -3.0883  -3.0552  -3.0551  -3.0542  -2.9685  -2.9684  -2.9670  -2.9670
    -2.9123  -2.9123  -2.8632  -2.8267  -2.7945  -2.6638  -2.6637  -2.5397
    -2.4922  -2.4761  -2.4317  -2.3529  -2.1196  -2.1196  -2.1158  -2.1132
    -2.0609  -2.0608  -2.0499  -2.0286  -2.0286  -1.9415  -1.9415  -1.9402
    -1.9033  -1.8759  -1.7037  -1.6734  -1.6280  -1.6279  -1.6126  -1.6126
    -1.5939  -1.4717  -1.4717  -1.4361  -1.4333  -1.4181  -1.3391  -1.3339
    -1.2942  -1.2942  -1.0166  -1.0163  -0.8548  -0.8497  -0.2222  -0.2221
     0.1963   1.2089   1.2089   2.2219   2.2426   2.2427   2.4203   2.4204
     2.4888   2.5152   4.2972   4.4421   4.5954   4.5955   5.0393   5.3474
     5.5498   5.5500

     occupation numbers 
     1.0000   1.0000   1.0000   1.0000   1.0000   1.0000   1.0000   1.0000
     1.0000   1.0000   1.0000   1.0000   1.0000   1.0000   1.0000   1.0000
     1.0000   1.0000   1.0000   1.0000   1.0000   1.0000   1.0000   1.0000
     1.0000   1.0000   1.0000   1.0000   1.0000   1.0000   1.0000   1.0000
     1.0000   1.0000   1.0000   1.0000   1.0000   1.0000   1.0000   1.0000
     1.0000   1.0000   1.0000   1.0000   1.0000   1.0000   1.0000   1.0000
     1.0000   1.0000   1.0000   1.0000   1.0000   1.0000   1.0000   1.0000
     1.0000   1.0000   1.0000   1.0000   1.0000   1.0000   1.0000   1.0000
     1.0000   1.0000   1.0000   1.0000   1.0000   1.0000   1.0000   1.0000
     1.0000   1.0000   1.0000   1.0000   1.0000   1.0000   1.0000   1.0000
     1.0000   1.0000   1.0000   1.0000   1.0000   1.0000   1.0000   1.0000
     0.9990   0.0000   0.0000   0.0000   0.0000   0.0000   0.0000   0.0000
     0.0000   0.0000   0.0000   0.0000   0.0000   0.0000   0.0000   0.0000
     0.0000   0.0000

          k = 0.0000-0.5000 0.0000 ( 18412 PWs)   bands (ev):

    -6.1923  -6.1922  -4.9336  -4.9335  -4.9335  -4.9334  -4.5830  -4.5830
    -4.5374  -4.5374  -4.5288  -4.5287  -4.5287  -4.5287  -4.5232  -4.5232
    -4.3524  -4.3523  -4.2263  -4.2262  -4.1764  -4.1764  -3.6690  -3.6690
    -3.6689  -3.6689  -3.5715  -3.5714  -3.2021  -3.2020  -3.2020  -3.2019
    -3.1054  -3.1053  -3.1053  -3.1053  -3.0708  -3.0708  -3.0707  -3.0707
    -2.9821  -2.9821  -2.9257  -2.9257  -2.5114  -2.5113  -2.3276  -2.3275
    -2.3165  -2.3165  -2.3164  -2.3164  -2.2838  -2.2837  -2.1094  -2.1093
    -1.8798  -1.8797  -1.8392  -1.8392  -1.8391  -1.8391  -1.8123  -1.8123
    -1.8123  -1.8123  -1.7354  -1.7353  -1.7074  -1.7074  -1.6337  -1.6337
    -1.6337  -1.6337  -1.5658  -1.5657  -1.5509  -1.5509  -1.3807  -1.3807
    -1.1856  -1.1856  -0.9488  -0.9487  -0.9487  -0.9487  -0.5107  -0.5107
     0.5978   0.5978   1.5916   1.5916   1.5917   1.5917   3.2804   3.2804
     3.5990   3.5991   4.1385   4.1386   4.1386   4.1387   5.5179   5.5179
     5.5180   5.5180

[...]
     1.0000   1.0000   1.0000   1.0000   1.0000   1.0000   1.0000   1.0000
     1.0000   1.0000   1.0000   1.0000   1.0000   1.0000   1.0000   1.0000
     1.0000   1.0000   1.0000   1.0000   1.0000   1.0000   0.9862   0.9861
     0.0000   0.0000   0.0000   0.0000   0.0000   0.0000   0.0000   0.0000
     0.0000   0.0000   0.0000   0.0000   0.0000   0.0000   0.0000   0.0000
     0.0000   0.0000

          k =-0.5000-0.5000 0.0000 ( 18528 PWs)   bands (ev):

    -5.8660  -5.8658  -5.8658  -5.8657  -4.8383  -4.8382  -4.8382  -4.8382
    -4.4844  -4.4844  -4.4844  -4.4844  -4.4843  -4.4843  -4.4842  -4.4842
    -4.0408  -4.0408  -4.0407  -4.0407  -4.0406  -4.0406  -4.0405  -4.0405
    -3.9476  -3.9475  -3.9475  -3.9475  -3.2181  -3.2181  -3.2181  -3.2180
    -3.2007  -3.2007  -3.2007  -3.2006  -2.8114  -2.8114  -2.8114  -2.8114
    -2.6691  -2.6691  -2.6691  -2.6691  -2.6691  -2.6691  -2.6691  -2.6691
    -2.4743  -2.4743  -2.4743  -2.4742  -2.4735  -2.4735  -2.4734  -2.4734
    -1.9213  -1.9213  -1.9212  -1.9212  -1.9212  -1.9212  -1.9212  -1.9212
    -1.8766  -1.8765  -1.8765  -1.8765  -1.5241  -1.5241  -1.5241  -1.5240
    -1.4815  -1.4815  -1.4814  -1.4814  -1.4814  -1.4814  -1.4814  -1.4814
    -1.1610  -1.1610  -1.1610  -1.1610  -0.0068  -0.0067  -0.0067  -0.0067
     1.9156   1.9156   1.9157   1.9157   1.9157   1.9157   1.9157   1.9158
     4.1030   4.1030   4.1030   4.1031   4.8684   4.8684   4.8684   4.8685
     4.8685   4.8685

     occupation numbers 
     1.0000   1.0000   1.0000   1.0000   1.0000   1.0000   1.0000   1.0000
     1.0000   1.0000   1.0000   1.0000   1.0000   1.0000   1.0000   1.0000
     1.0000   1.0000   1.0000   1.0000   1.0000   1.0000   1.0000   1.0000
     1.0000   1.0000   1.0000   1.0000   1.0000   1.0000   1.0000   1.0000
     1.0000   1.0000   1.0000   1.0000   1.0000   1.0000   1.0000   1.0000
     1.0000   1.0000   1.0000   1.0000   1.0000   1.0000   1.0000   1.0000
     1.0000   1.0000   1.0000   1.0000   1.0000   1.0000   1.0000   1.0000
     1.0000   1.0000   1.0000   1.0000   1.0000   1.0000   1.0000   1.0000
     1.0000   1.0000   1.0000   1.0000   1.0000   1.0000   1.0000   1.0000
     1.0000   1.0000   1.0000   1.0000   1.0000   1.0000   1.0000   1.0000
     1.0000   1.0000   1.0000   1.0000   1.0000   1.0000   1.0000   1.0000
     0.0000   0.0000   0.0000   0.0000   0.0000   0.0000   0.0000   0.0000
     0.0000   0.0000   0.0000   0.0000   0.0000   0.0000   0.0000   0.0000
     0.0000   0.0000

     the Fermi energy is     0.3578 ev

!    total energy              =   -1839.20291185 Ry
     estimated scf accuracy    <          3.5E-09 Ry
     smearing contrib. (-TS)   =      -0.00081490 Ry
     internal energy E=F+TS    =   -1839.20209695 Ry

     The total energy is F=E-TS. E is the sum of the following terms:
     one-electron contribution =   -3640.17064072 Ry
     hartree contribution      =    1947.67706616 Ry
     xc contribution           =    -994.61539666 Ry
     ewald contribution        =     847.90687427 Ry

     convergence has been achieved in   6 iterations

     negative rho (up, down):  7.843E-05 0.000E+00

     Forces acting on atoms (cartesian axes, Ry/au):

     atom    1 type  1   force =     0.00000000    0.00000000    0.00002717
     atom    2 type  1   force =     0.00000000    0.00000714   -0.00003708
     atom    3 type  1   force =     0.00000714    0.00000000   -0.00003708
     atom    4 type  1   force =     0.00000744    0.00000744    0.00004542
     atom    5 type  1   force =     0.00000000    0.00000000    0.00003661
     atom    6 type  1   force =     0.00000000   -0.00000714   -0.00003708
     atom    7 type  1   force =     0.00000524    0.00000000   -0.00004532
     atom    8 type  1   force =     0.00000744   -0.00000744    0.00004542
     atom    9 type  1   force =     0.00000000    0.00000000    0.00003661
     atom   10 type  1   force =     0.00000000    0.00000524   -0.00004532
     atom   11 type  1   force =    -0.00000714    0.00000000   -0.00003708
     atom   12 type  1   force =    -0.00000744    0.00000744    0.00004542
     atom   13 type  1   force =     0.00000000    0.00000000    0.00004750
     atom   14 type  1   force =     0.00000000   -0.00000524   -0.00004532
     atom   15 type  1   force =    -0.00000524    0.00000000   -0.00004532
     atom   16 type  1   force =    -0.00000744   -0.00000744    0.00004542
     The non-local contrib.  to forces
     atom    1 type  1   force =     0.00000000    0.00000000    0.01523895
     atom    2 type  1   force =     0.00000000    0.00000310   -0.01524592
     atom    3 type  1   force =     0.00000310    0.00000000   -0.01524592
     atom    4 type  1   force =     0.00000417    0.00000417    0.01524859
     atom    5 type  1   force =     0.00000000    0.00000000    0.01523711
     atom    6 type  1   force =     0.00000000   -0.00000310   -0.01524592
     atom    7 type  1   force =     0.00000341    0.00000000   -0.01524285
     atom    8 type  1   force =     0.00000417   -0.00000417    0.01524859
     atom    9 type  1   force =     0.00000000    0.00000000    0.01523711
     atom   10 type  1   force =     0.00000000    0.00000341   -0.01524285
     atom   11 type  1   force =    -0.00000310    0.00000000   -0.01524592
     atom   12 type  1   force =    -0.00000417    0.00000417    0.01524859
     atom   13 type  1   force =     0.00000000    0.00000000    0.01522902
     atom   14 type  1   force =     0.00000000   -0.00000341   -0.01524285
     atom   15 type  1   force =    -0.00000341    0.00000000   -0.01524285
     atom   16 type  1   force =    -0.00000417   -0.00000417    0.01524859
     The ionic contribution  to forces
     atom    1 type  1   force =    -0.00003943   -0.00003943  -32.82290462
     atom    2 type  1   force =    -0.00003942    0.00071610   32.82722764
     atom    3 type  1   force =     0.00071610   -0.00003942   32.82722764
     atom    4 type  1   force =     0.00081880    0.00081880  -32.83135002
     atom    5 type  1   force =    -0.00003943    0.00001508  -32.82291376
     atom    6 type  1   force =    -0.00003942   -0.00069175   32.82721018
     atom    7 type  1   force =     0.00092647    0.00001508   32.82690630
     atom    8 type  1   force =     0.00081880   -0.00079446  -32.83133256
     atom    9 type  1   force =     0.00001508   -0.00003943  -32.82291376
     atom   10 type  1   force =     0.00001508    0.00092647   32.82690630
     atom   11 type  1   force =    -0.00069175   -0.00003942   32.82721018
     atom   12 type  1   force =    -0.00079446    0.00081880  -32.83133256
     atom   13 type  1   force =     0.00001508    0.00001508  -32.82240355
     atom   14 type  1   force =     0.00001508   -0.00090211   32.82688884
     atom   15 type  1   force =    -0.00090211    0.00001508   32.82688884
     atom   16 type  1   force =    -0.00079446   -0.00079446  -32.83131509
     The local contribution  to forces
     atom    1 type  1   force =    -0.00000000   -0.00000000   32.77849544
     atom    2 type  1   force =    -0.00000000   -0.00065093  -32.78280772
     atom    3 type  1   force =    -0.00065093   -0.00000000  -32.78280772
     atom    4 type  1   force =    -0.00075182   -0.00075182   32.78698752
     atom    5 type  1   force =    -0.00000000    0.00004951   32.77851807
     atom    6 type  1   force =    -0.00000000    0.00074994  -32.78280772
     atom    7 type  1   force =    -0.00085721    0.00004951  -32.78251273
     atom    8 type  1   force =    -0.00075182    0.00085084   32.78698752
     atom    9 type  1   force =     0.00004951   -0.00000000   32.77851807
     atom   10 type  1   force =     0.00004951   -0.00085721  -32.78251273
     atom   11 type  1   force =     0.00074994   -0.00000000  -32.78280772
     atom   12 type  1   force =     0.00085084   -0.00075182   32.78698752
     atom   13 type  1   force =     0.00004951    0.00004951   32.77803166
     atom   14 type  1   force =     0.00004951    0.00095622  -32.78251273
     atom   15 type  1   force =     0.00095622    0.00004951  -32.78251273
     atom   16 type  1   force =     0.00085084    0.00085084   32.78698752
     The core correction contribution to forces
     atom    1 type  1   force =     0.00000000    0.00000000    0.02917034
     atom    2 type  1   force =    -0.00000001    0.00001370   -0.02915323
     atom    3 type  1   force =     0.00001370   -0.00000001   -0.02915323
     atom    4 type  1   force =     0.00001296    0.00001296    0.02911899
     atom    5 type  1   force =    -0.00000000    0.00001504    0.02916808
     atom    6 type  1   force =    -0.00000000    0.00001638   -0.02915322
     atom    7 type  1   force =     0.00001332    0.00001504   -0.02915085
     atom    8 type  1   force =     0.00001295    0.00001713    0.02911899
     atom    9 type  1   force =     0.00001504   -0.00000000    0.02916808
     atom   10 type  1   force =     0.00001504    0.00001332   -0.02915085
     atom   11 type  1   force =     0.00001638   -0.00000000   -0.02915322
     atom   12 type  1   force =     0.00001713    0.00001295    0.02911899
     atom   13 type  1   force =     0.00001504    0.00001504    0.02916435
     atom   14 type  1   force =     0.00001504    0.00001676   -0.02915086
     atom   15 type  1   force =     0.00001676    0.00001504   -0.02915086
     atom   16 type  1   force =     0.00001713    0.00001713    0.02911899
     The Hubbard contrib.    to forces
     atom    1 type  1   force =     0.00000000    0.00000000    0.00000000
     atom    2 type  1   force =     0.00000000    0.00000000    0.00000000
     atom    3 type  1   force =     0.00000000    0.00000000    0.00000000
     atom    4 type  1   force =     0.00000000    0.00000000    0.00000000
     atom    5 type  1   force =     0.00000000    0.00000000    0.00000000
     atom    6 type  1   force =     0.00000000    0.00000000    0.00000000
     atom    7 type  1   force =     0.00000000    0.00000000    0.00000000
     atom    8 type  1   force =     0.00000000    0.00000000    0.00000000
     atom    9 type  1   force =     0.00000000    0.00000000    0.00000000
     atom   10 type  1   force =     0.00000000    0.00000000    0.00000000
     atom   11 type  1   force =     0.00000000    0.00000000    0.00000000
     atom   12 type  1   force =     0.00000000    0.00000000    0.00000000
     atom   13 type  1   force =     0.00000000    0.00000000    0.00000000
     atom   14 type  1   force =     0.00000000    0.00000000    0.00000000
     atom   15 type  1   force =     0.00000000    0.00000000    0.00000000
     atom   16 type  1   force =     0.00000000    0.00000000    0.00000000
     The SCF correction term to forces
     atom    1 type  1   force =    -0.00000000   -0.00000000    0.00001991
     atom    2 type  1   force =    -0.00000000    0.00000188   -0.00005628
     atom    3 type  1   force =     0.00000188   -0.00000000   -0.00005628
     atom    4 type  1   force =     0.00000005    0.00000005    0.00001571
     atom    5 type  1   force =    -0.00000000   -0.00000000    0.00001994
     atom    6 type  1   force =    -0.00000000   -0.00000188   -0.00005628
     atom    7 type  1   force =    -0.00000403   -0.00000000   -0.00004361
     atom    8 type  1   force =     0.00000005   -0.00000005    0.00001571
     atom    9 type  1   force =    -0.00000000   -0.00000000    0.00001994
     atom   10 type  1   force =    -0.00000000   -0.00000403   -0.00004361
     atom   11 type  1   force =    -0.00000188   -0.00000000   -0.00005628
     atom   12 type  1   force =    -0.00000005    0.00000005    0.00001571
     atom   13 type  1   force =    -0.00000000   -0.00000000    0.00001886
     atom   14 type  1   force =    -0.00000000    0.00000403   -0.00004361
     atom   15 type  1   force =     0.00000403   -0.00000000   -0.00004361
     atom   16 type  1   force =    -0.00000005   -0.00000005    0.00001572

     Total force =     0.000169     Total SCF correction =     0.000151
     SCF correction compared to forces is large: reduce conv_thr to get better values


     Computing stress (Cartesian axis) and pressure


     negative rho (up, down):  7.843E-05 0.000E+00
          total   stress  (Ry/bohr**3)                   (kbar)     P=      -20.87
  -0.00021130   0.00000000   0.00000000          -31.08        0.00        0.00
   0.00000000  -0.00021130   0.00000000            0.00      -31.08        0.00
   0.00000000   0.00000000  -0.00000311            0.00        0.00       -0.46

     kinetic stress (kbar)   5919.83      0.00      0.00
                                0.00   5919.83      0.00
                                0.00      0.00   5997.70

     local   stress (kbar) -75010.15     -0.00     -0.00
                               -0.00 -75010.15     -0.00
                               -0.00     -0.00  88792.44

     nonloc. stress (kbar)  -3788.76      0.00      0.00
                                0.00  -3788.76      0.00
                                0.00      0.00  -3793.52

     hartree stress (kbar)  40556.95     -0.00      0.00
                               -0.00  40556.95     -0.00
                                0.00     -0.00 -38067.39

     exc-cor stress (kbar)  15341.90      0.00      0.00
                                0.00  15341.90      0.00
                                0.00      0.00  15335.42

     corecor stress (kbar) -17699.70     -0.00     -0.00
                               -0.00 -17699.70     -0.00
                               -0.00     -0.00 -17707.37

     ewald   stress (kbar)  34648.86     -0.00      0.00
                               -0.00  34648.86      0.00
                                0.00      0.00 -50557.74

     hubbard stress (kbar)      0.00      0.00      0.00
                                0.00      0.00      0.00
                                0.00      0.00      0.00

     DFT-D   stress (kbar)      0.00      0.00      0.00
                                0.00      0.00      0.00
                                0.00      0.00      0.00

     XDM     stress (kbar)      0.00      0.00      0.00
                                0.00      0.00      0.00
                                0.00      0.00      0.00

     dft-nl  stress (kbar)      0.00      0.00      0.00
                                0.00      0.00      0.00
                                0.00      0.00      0.00

     TS-vdW  stress (kbar)      0.00      0.00      0.00
                                0.00      0.00      0.00
                                0.00      0.00      0.00


     Energy error            =      1.2E-05
     Gradient error          =      4.8E-05

     bfgs converged in   7 scf cycles and   6 bfgs steps
     (criteria: energy <  1.0E-04 Ry, force <  1.0E-03 Ry/Bohr)

     End of BFGS Geometry Optimization

     Final energy   =   -1839.2029118486 Ry

     File ./surface.bfgs deleted, as requested
Begin final coordinates

ATOMIC_POSITIONS (angstrom)
Au            0.0000000000        0.0000000000        0.0386416287
Au            0.0000000000        2.0856207418        2.0472162033
Au            2.0856207418        0.0000000000        2.0472162033
Au            2.0856154303        2.0856154303        0.0382208104
Au            0.0000000000        4.1712880000        0.0386167345
Au            0.0000000000        6.2569552582        2.0472162033
Au            2.0856118650        4.1712880000        2.0472303939
Au            2.0856154303        6.2569605697        0.0382208104
Au            4.1712880000        0.0000000000        0.0386167345
Au            4.1712880000        2.0856118650        2.0472303939
Au            6.2569552582        0.0000000000        2.0472162033
Au            6.2569605697        2.0856154303        0.0382208104
Au            4.1712880000        4.1712880000        0.0386072720
Au            4.1712880000        6.2569641350        2.0472303939
Au            6.2569641350        4.1712880000        2.0472303939
Au            6.2569605697        6.2569605697        0.0382208104
End final coordinates



     Writing output data file ./surface.save/

     init_run     :      1.52s CPU      1.66s WALL (       1 calls)
     electrons    :    133.31s CPU    143.02s WALL (       7 calls)
     update_pot   :      2.10s CPU      2.13s WALL (       6 calls)
     forces       :      6.74s CPU      7.25s WALL (       7 calls)
     stress       :     30.25s CPU     31.07s WALL (       7 calls)

     Called by init_run:
     wfcinit      :      0.64s CPU      0.66s WALL (       1 calls)
     wfcinit:atom :      0.01s CPU      0.01s WALL (       6 calls)
     wfcinit:wfcr :      0.59s CPU      0.60s WALL (       6 calls)
     potinit      :      0.13s CPU      0.14s WALL (       1 calls)
     hinit0       :      0.24s CPU      0.27s WALL (       1 calls)

     Called by electrons:
     c_bands      :    100.93s CPU    102.38s WALL (      57 calls)
     sum_band     :     22.28s CPU     27.07s WALL (      57 calls)
     v_of_rho     :      1.97s CPU      2.10s WALL (      57 calls)
     v_h          :      0.16s CPU      0.16s WALL (      57 calls)
     v_xc         :      2.27s CPU      2.40s WALL (      71 calls)
     newd         :      8.94s CPU     12.38s WALL (      57 calls)
     mix_rho      :      0.19s CPU      0.20s WALL (      57 calls)

     Called by c_bands:
     init_us_2    :      2.03s CPU      2.08s WALL (     774 calls)
     cegterg      :     96.76s CPU     98.03s WALL (     342 calls)

     Called by sum_band:
     sum_band:wei :      0.01s CPU      0.02s WALL (      57 calls)
     sum_band:loo :     10.54s CPU     10.71s WALL (      57 calls)
     sum_band:buf :      0.30s CPU      0.31s WALL (     342 calls)
     sum_band:ini :      0.95s CPU      0.96s WALL (     342 calls)
     sum_band:cal :      3.95s CPU      3.98s WALL (     342 calls)
     sum_band:bec :      0.15s CPU      0.16s WALL (     342 calls)
     addusdens    :     11.20s CPU     15.79s WALL (      57 calls)
     addusd:skk   :      0.16s CPU      0.16s WALL (      57 calls)
     addusd:dgemm :      5.61s CPU     10.07s WALL (      57 calls)
     addusd:qvan2 :      4.43s CPU      4.48s WALL (      57 calls)

     Called by *egterg:
     cdiaghg      :     13.17s CPU     13.29s WALL (    1412 calls)
     cegterg:over :      7.59s CPU      7.67s WALL (    1148 calls)
     cegterg:upda :      4.36s CPU      4.40s WALL (    1148 calls)
     cegterg:last :     11.09s CPU     11.17s WALL (     897 calls)
     cdiaghg:chol :      0.56s CPU      0.57s WALL (    1412 calls)
     cdiaghg:inve :      0.55s CPU      0.56s WALL (    1412 calls)
     cdiaghg:para :      1.30s CPU      1.32s WALL (    2824 calls)
     h_psi        :     50.62s CPU     51.47s WALL (    1496 calls)
     s_psi        :      7.63s CPU      7.69s WALL (    1496 calls)
     g_psi        :      0.11s CPU      0.11s WALL (    1148 calls)

     Called by h_psi:
     h_psi:calbec :     12.96s CPU     13.08s WALL (    1496 calls)
     vloc_psi     :     29.00s CPU     29.65s WALL (    1496 calls)
     add_vuspsi   :      8.28s CPU      8.36s WALL (    1496 calls)

     General routines
     calbec       :     19.59s CPU     19.77s WALL (    2048 calls)
     fft          :      1.76s CPU      1.81s WALL (     915 calls)
     ffts         :      0.04s CPU      0.04s WALL (     114 calls)
     fftw         :     31.50s CPU     32.19s WALL (  247194 calls)
     interpolate  :      0.12s CPU      0.12s WALL (      57 calls)

     Parallel routines
     fft_scatt_xy :      2.78s CPU      2.84s WALL (  248223 calls)
     fft_scatt_yz :     15.52s CPU     15.90s WALL (  248223 calls)

     PWSCF        :   2m55.32s CPU   3m 7.92s WALL


   This run was terminated on:   0:28:27   6Dec2021            

=------------------------------------------------------------------------------=
   JOB DONE.
=------------------------------------------------------------------------------=
