
     Program PWSCF v.6.7MaX starts on  6Dec2021 at  0:25:19 

     This program is part of the open-source Quantum ESPRESSO suite
     for quantum simulation of materials; please cite
         "P. Giannozzi et al., J. Phys.:Condens. Matter 21 395502 (2009);
         "P. Giannozzi et al., J. Phys.:Condens. Matter 29 465901 (2017);
          URL http://www.quantum-espresso.org", 
     in publications or presentations arising from this work. More details at
     http://www.quantum-espresso.org/quote

     Parallel version (MPI), running on    32 processors

     MPI processes distributed on     1 nodes
     R & G space division:  proc/nbgrp/npool/nimage =      32
     Reading input from au_surface.100.k.qe.8_8_1.in

     Current dimensions of program PWSCF are:
     Max number of different atomic species (ntypx) = 10
     Max number of k-points (npk) =  40000
     Max angular momentum in pseudopotentials (lmaxx) =  3

     Subspace diagonalization in iterative solution of the eigenvalue problem:
     one sub-group per band group will be used
     scalapack distributed-memory algorithm (size of sub-group:  5*  5 procs)

     Found symmetry operation: I + (  0.2500  0.2500  0.0000)
     This is a supercell, fractional translations are disabled

     Parallelization info
     --------------------
     sticks:   dense  smooth     PW     G-vecs:    dense   smooth      PW
     Min         185      74     20                18243     4618     670
     Max         186      75     21                18250     4623     677
     Sum        5949    2377    665               583927   147845   21545



     bravais-lattice index     =            8
     lattice parameter (alat)  =      15.7652  a.u.
     unit-cell volume          =    6655.8994 (a.u.)^3
     number of atoms/cell      =           16
     number of atomic types    =            1
     number of electrons       =       176.00
     number of Kohn-Sham states=          106
     kinetic-energy cutoff     =      30.0000  Ry
     charge density cutoff     =     300.0000  Ry
     scf convergence threshold =      1.0E-06
     mixing beta               =       0.3000
     number of iterations used =            8  plain     mixing
     energy convergence thresh.=      1.0E-04
     force convergence thresh. =      1.0E-03
     Exchange-correlation= SLA  PW   PBE  PBE
                           (   1   4   3   4   0   0   0)
     nstep                     =           50


     celldm(1)=  15.765191  celldm(2)=   1.000000  celldm(3)=   1.698670
     celldm(4)=   0.000000  celldm(5)=   0.000000  celldm(6)=   0.000000

     crystal axes: (cart. coord. in units of alat)
               a(1) = (   1.000000   0.000000   0.000000 )  
               a(2) = (   0.000000   1.000000   0.000000 )  
               a(3) = (   0.000000   0.000000   1.698670 )  

     reciprocal axes: (cart. coord. in units 2 pi/alat)
               b(1) = (  1.000000  0.000000  0.000000 )  
               b(2) = (  0.000000  1.000000  0.000000 )  
               b(3) = (  0.000000  0.000000  0.588696 )  


     PseudoPot. # 1 for Au read from file:
     /expanse/lustre/projects/csd622/tpascal/nano110/qe/pseudo/au_pbe_v1.uspp.F.UPF
     MD5 check sum: 9d7f43293ad2c663164586bc4b293ffc
     Pseudo is Ultrasoft + core correction, Zval = 11.0
     Generated by new atomic code, or converted to UPF format
     Using radial grid of  985 points,  7 beta functions with: 
                l(1) =   0
                l(2) =   0
                l(3) =   1
                l(4) =   1
                l(5) =   2
                l(6) =   2
                l(7) =   3
     Q(r) pseudized with  6 coefficients,  rinner =    1.900   1.900   1.900
                                                       1.900   1.900   1.900
                                                       1.900

     atomic species   valence    mass     pseudopotential
        Au            11.00   196.96655     Au( 1.00)

      8 Sym. Ops. (no inversion) found


                                    s                        frac. trans.

      isym =  1     identity                                     

 cryst.   s( 1) = (     1          0          0      )
                  (     0          1          0      )
                  (     0          0          1      )

 cart.    s( 1) = (  1.0000000  0.0000000  0.0000000 )
                  (  0.0000000  1.0000000  0.0000000 )
                  (  0.0000000  0.0000000  1.0000000 )


      isym =  2     180 deg rotation - cart. axis [0,0,1]        

 cryst.   s( 2) = (    -1          0          0      )
                  (     0         -1          0      )
                  (     0          0          1      )

 cart.    s( 2) = ( -1.0000000  0.0000000  0.0000000 )
                  (  0.0000000 -1.0000000  0.0000000 )
                  (  0.0000000  0.0000000  1.0000000 )


      isym =  3      90 deg rotation - cart. axis [0,0,-1]       

 cryst.   s( 3) = (     0         -1          0      )
                  (     1          0          0      )
                  (     0          0          1      )

 cart.    s( 3) = (  0.0000000  1.0000000  0.0000000 )
                  ( -1.0000000  0.0000000  0.0000000 )
                  (  0.0000000  0.0000000  1.0000000 )


      isym =  4      90 deg rotation - cart. axis [0,0,1]        

 cryst.   s( 4) = (     0          1          0      )
                  (    -1          0          0      )
                  (     0          0          1      )

 cart.    s( 4) = (  0.0000000 -1.0000000  0.0000000 )
                  (  1.0000000  0.0000000  0.0000000 )
                  (  0.0000000  0.0000000  1.0000000 )


      isym =  5     inv. 180 deg rotation - cart. axis [0,1,0]   

 cryst.   s( 5) = (     1          0          0      )
                  (     0         -1          0      )
                  (     0          0          1      )

 cart.    s( 5) = (  1.0000000  0.0000000  0.0000000 )
                  (  0.0000000 -1.0000000  0.0000000 )
                  (  0.0000000  0.0000000  1.0000000 )


      isym =  6     inv. 180 deg rotation - cart. axis [1,0,0]   

 cryst.   s( 6) = (    -1          0          0      )
                  (     0          1          0      )
                  (     0          0          1      )

 cart.    s( 6) = ( -1.0000000  0.0000000  0.0000000 )
                  (  0.0000000  1.0000000  0.0000000 )
                  (  0.0000000  0.0000000  1.0000000 )


      isym =  7     inv. 180 deg rotation - cart. axis [1,1,0]   

 cryst.   s( 7) = (     0         -1          0      )
                  (    -1          0          0      )
                  (     0          0          1      )

 cart.    s( 7) = (  0.0000000 -1.0000000  0.0000000 )
                  ( -1.0000000  0.0000000  0.0000000 )
                  (  0.0000000  0.0000000  1.0000000 )


      isym =  8     inv. 180 deg rotation - cart. axis [1,-1,0]  

 cryst.   s( 8) = (     0          1          0      )
                  (     1          0          0      )
                  (     0          0          1      )

 cart.    s( 8) = (  0.0000000  1.0000000  0.0000000 )
                  (  1.0000000  0.0000000  0.0000000 )
                  (  0.0000000  0.0000000  1.0000000 )


     point group C_4v (4mm) 
     there are  5 classes
     the character table:

       E     2C4   C2    2s_v  2s_d 
A_1    1.00  1.00  1.00  1.00  1.00
A_2    1.00  1.00  1.00 -1.00 -1.00
B_1    1.00 -1.00  1.00  1.00 -1.00
B_2    1.00 -1.00  1.00 -1.00  1.00
E      2.00  0.00 -2.00  0.00  0.00

     the symmetry operations in each class and the name of the first element:

     E        1
          identity                                               
     2C4      3    4
           90 deg rotation - cart. axis [0,0,-1]                 
     C2       2
          180 deg rotation - cart. axis [0,0,1]                  
     2s_v     5    6
          inv. 180 deg rotation - cart. axis [0,1,0]             
     2s_d     7    8
          inv. 180 deg rotation - cart. axis [1,1,0]             

   Cartesian axes

     site n.     atom                  positions (alat units)
         1           Au  tau(   1) = (   0.0000000   0.0000000   0.0000000  )
         2           Au  tau(   2) = (   0.0000000   0.2499999   0.2499999  )
         3           Au  tau(   3) = (   0.2499999   0.0000000   0.2499999  )
         4           Au  tau(   4) = (   0.2499999   0.2499999   0.0000000  )
         5           Au  tau(   5) = (   0.0000000   0.4999998   0.0000000  )
         6           Au  tau(   6) = (   0.0000000   0.7499996   0.2499999  )
         7           Au  tau(   7) = (   0.2499999   0.4999998   0.2499999  )
         8           Au  tau(   8) = (   0.2499999   0.7499996   0.0000000  )
         9           Au  tau(   9) = (   0.4999998   0.0000000   0.0000000  )
        10           Au  tau(  10) = (   0.4999998   0.2499999   0.2499999  )
        11           Au  tau(  11) = (   0.7499996   0.0000000   0.2499999  )
        12           Au  tau(  12) = (   0.7499996   0.2499999   0.0000000  )
        13           Au  tau(  13) = (   0.4999998   0.4999998   0.0000000  )
        14           Au  tau(  14) = (   0.4999998   0.7499996   0.2499999  )
        15           Au  tau(  15) = (   0.7499996   0.4999998   0.2499999  )
        16           Au  tau(  16) = (   0.7499996   0.7499996   0.0000000  )

   Crystallographic axes

     site n.     atom                  positions (cryst. coord.)
         1           Au  tau(   1) = (  0.0000000  0.0000000  0.0000000  )
         2           Au  tau(   2) = (  0.0000000  0.2499999  0.1471739  )
         3           Au  tau(   3) = (  0.2499999  0.0000000  0.1471739  )
         4           Au  tau(   4) = (  0.2499999  0.2499999  0.0000000  )
         5           Au  tau(   5) = (  0.0000000  0.4999998  0.0000000  )
         6           Au  tau(   6) = (  0.0000000  0.7499996  0.1471739  )
         7           Au  tau(   7) = (  0.2499999  0.4999998  0.1471739  )
         8           Au  tau(   8) = (  0.2499999  0.7499996  0.0000000  )
         9           Au  tau(   9) = (  0.4999998  0.0000000  0.0000000  )
        10           Au  tau(  10) = (  0.4999998  0.2499999  0.1471739  )
        11           Au  tau(  11) = (  0.7499996  0.0000000  0.1471739  )
        12           Au  tau(  12) = (  0.7499996  0.2499999  0.0000000  )
        13           Au  tau(  13) = (  0.4999998  0.4999998  0.0000000  )
        14           Au  tau(  14) = (  0.4999998  0.7499996  0.1471739  )
        15           Au  tau(  15) = (  0.7499996  0.4999998  0.1471739  )
        16           Au  tau(  16) = (  0.7499996  0.7499996  0.0000000  )

     number of k points=    15  Gaussian smearing, width (Ry)=  0.0030
                       cart. coord. in units 2pi/alat
        k(    1) = (   0.0000000   0.0000000   0.0000000), wk =   0.0312500
        k(    2) = (   0.0000000   0.1250000   0.0000000), wk =   0.1250000
        k(    3) = (   0.0000000   0.2500000   0.0000000), wk =   0.1250000
        k(    4) = (   0.0000000   0.3750000   0.0000000), wk =   0.1250000
        k(    5) = (   0.0000000  -0.5000000   0.0000000), wk =   0.0625000
        k(    6) = (   0.1250000   0.1250000   0.0000000), wk =   0.1250000
        k(    7) = (   0.1250000   0.2500000   0.0000000), wk =   0.2500000
        k(    8) = (   0.1250000   0.3750000   0.0000000), wk =   0.2500000
        k(    9) = (   0.1250000  -0.5000000   0.0000000), wk =   0.1250000
        k(   10) = (   0.2500000   0.2500000   0.0000000), wk =   0.1250000
        k(   11) = (   0.2500000   0.3750000   0.0000000), wk =   0.2500000
        k(   12) = (   0.2500000  -0.5000000   0.0000000), wk =   0.1250000
        k(   13) = (   0.3750000   0.3750000   0.0000000), wk =   0.1250000
        k(   14) = (   0.3750000  -0.5000000   0.0000000), wk =   0.1250000
        k(   15) = (  -0.5000000  -0.5000000   0.0000000), wk =   0.0312500

                       cryst. coord.
        k(    1) = (   0.0000000   0.0000000   0.0000000), wk =   0.0312500
        k(    2) = (   0.0000000   0.1250000   0.0000000), wk =   0.1250000
        k(    3) = (   0.0000000   0.2500000   0.0000000), wk =   0.1250000
        k(    4) = (   0.0000000   0.3750000   0.0000000), wk =   0.1250000
        k(    5) = (   0.0000000  -0.5000000   0.0000000), wk =   0.0625000
        k(    6) = (   0.1250000   0.1250000   0.0000000), wk =   0.1250000
        k(    7) = (   0.1250000   0.2500000   0.0000000), wk =   0.2500000
        k(    8) = (   0.1250000   0.3750000   0.0000000), wk =   0.2500000
        k(    9) = (   0.1250000  -0.5000000   0.0000000), wk =   0.1250000
        k(   10) = (   0.2500000   0.2500000   0.0000000), wk =   0.1250000
        k(   11) = (   0.2500000   0.3750000   0.0000000), wk =   0.2500000
        k(   12) = (   0.2500000  -0.5000000   0.0000000), wk =   0.1250000
        k(   13) = (   0.3750000   0.3750000   0.0000000), wk =   0.1250000
        k(   14) = (   0.3750000  -0.5000000   0.0000000), wk =   0.1250000
        k(   15) = (  -0.5000000  -0.5000000   0.0000000), wk =   0.0312500

     Dense  grid:   583927 G-vectors     FFT dimensions: (  90,  90, 150)

     Smooth grid:   147845 G-vectors     FFT dimensions: (  60,  60,  96)

     Dynamical RAM for                 wfc:       0.93 MB

     Dynamical RAM for     wfc (w. buffer):      14.93 MB

     Dynamical RAM for           str. fact:       0.28 MB

     Dynamical RAM for           local pot:       0.00 MB

     Dynamical RAM for          nlocal pot:       3.52 MB

     Dynamical RAM for                qrad:       2.60 MB

     Dynamical RAM for          rho,v,vnew:       1.76 MB

     Dynamical RAM for               rhoin:       0.59 MB

     Dynamical RAM for            rho*nmix:       4.46 MB

     Dynamical RAM for           G-vectors:       1.08 MB

     Dynamical RAM for          h,s,v(r/c):       0.08 MB

     Dynamical RAM for          <psi|beta>:       0.65 MB

     Dynamical RAM for                 psi:       1.87 MB

     Dynamical RAM for                hpsi:       1.87 MB

     Dynamical RAM for                spsi:       1.87 MB

     Dynamical RAM for      wfcinit/wfcrot:       3.01 MB

     Dynamical RAM for           addusdens:     102.48 MB

     Dynamical RAM for          addusforce:     111.09 MB

     Dynamical RAM for         addusstress:     105.54 MB

     Estimated static dynamical RAM per process >      31.32 MB

     Estimated max dynamical RAM per process >     142.41 MB

     Estimated total dynamical RAM >       4.45 GB

     Check: negative core charge=   -0.000004

     Initial potential from superposition of free atoms

     starting charge  175.99804, renormalised to  176.00000

     negative rho (up, down):  2.645E-05 0.000E+00
     Starting wfcs are  144 randomized atomic wfcs

     total cpu time spent up to now is        2.7 secs

     Self-consistent Calculation

     iteration #  1     ecut=    30.00 Ry     beta= 0.30
     Davidson diagonalization with overlap
     ethr =  1.00E-02,  avg # of iterations =  2.1

     Threshold (ethr) on eigenvalues was too large:
     Diagonalizing with lowered threshold

     Davidson diagonalization with overlap
     ethr =  3.94E-04,  avg # of iterations =  2.0

     negative rho (up, down):  1.609E-05 0.000E+00

     total cpu time spent up to now is       10.4 secs

     total energy              =   -1839.11920324 Ry
     estimated scf accuracy    <       0.79604787 Ry

     iteration #  2     ecut=    30.00 Ry     beta= 0.30
     Davidson diagonalization with overlap
     ethr =  4.52E-04,  avg # of iterations =  2.0

     negative rho (up, down):  2.851E-05 0.000E+00

     total cpu time spent up to now is       14.3 secs

     total energy              =   -1839.17674186 Ry
     estimated scf accuracy    <       0.08609209 Ry

     iteration #  3     ecut=    30.00 Ry     beta= 0.30
     Davidson diagonalization with overlap
     ethr =  4.89E-05,  avg # of iterations =  5.1

     negative rho (up, down):  4.043E-05 0.000E+00

     total cpu time spent up to now is       20.0 secs

     total energy              =   -1839.20003053 Ry
     estimated scf accuracy    <       0.00852706 Ry

     iteration #  4     ecut=    30.00 Ry     beta= 0.30
     Davidson diagonalization with overlap
     ethr =  4.84E-06,  avg # of iterations =  6.3

     negative rho (up, down):  5.822E-05 0.000E+00

     total cpu time spent up to now is       25.2 secs

     total energy              =   -1839.20044185 Ry
     estimated scf accuracy    <       0.00312903 Ry

     iteration #  5     ecut=    30.00 Ry     beta= 0.30
     Davidson diagonalization with overlap
     ethr =  1.78E-06,  avg # of iterations =  2.5

     negative rho (up, down):  6.326E-05 0.000E+00

     total cpu time spent up to now is       29.3 secs

     total energy              =   -1839.20057665 Ry
     estimated scf accuracy    <       0.00028738 Ry

     iteration #  6     ecut=    30.00 Ry     beta= 0.30
     Davidson diagonalization with overlap
     ethr =  1.63E-07,  avg # of iterations =  3.8

     negative rho (up, down):  6.614E-05 0.000E+00

     total cpu time spent up to now is       34.7 secs

     total energy              =   -1839.20065662 Ry
     estimated scf accuracy    <       0.00005290 Ry

     iteration #  7     ecut=    30.00 Ry     beta= 0.30
     Davidson diagonalization with overlap
     ethr =  3.01E-08,  avg # of iterations =  4.0

     negative rho (up, down):  6.868E-05 0.000E+00

     total cpu time spent up to now is       40.1 secs

     total energy              =   -1839.20066996 Ry
     estimated scf accuracy    <       0.00001743 Ry

     iteration #  8     ecut=    30.00 Ry     beta= 0.30
     Davidson diagonalization with overlap
     ethr =  9.90E-09,  avg # of iterations =  2.4

     negative rho (up, down):  7.071E-05 0.000E+00

     total cpu time spent up to now is       44.8 secs

     total energy              =   -1839.20066904 Ry
     estimated scf accuracy    <       0.00000506 Ry

     iteration #  9     ecut=    30.00 Ry     beta= 0.30
     Davidson diagonalization with overlap
     ethr =  2.87E-09,  avg # of iterations =  3.6

     negative rho (up, down):  7.190E-05 0.000E+00

     total cpu time spent up to now is       50.4 secs

     total energy              =   -1839.20067170 Ry
     estimated scf accuracy    <       0.00000222 Ry

     iteration # 10     ecut=    30.00 Ry     beta= 0.30
     Davidson diagonalization with overlap
     ethr =  1.26E-09,  avg # of iterations =  1.3

     negative rho (up, down):  7.279E-05 0.000E+00

     total cpu time spent up to now is       54.0 secs

     total energy              =   -1839.20067150 Ry
     estimated scf accuracy    <       0.00000124 Ry

     iteration # 11     ecut=    30.00 Ry     beta= 0.30
     Davidson diagonalization with overlap
     ethr =  7.03E-10,  avg # of iterations =  1.5

     negative rho (up, down):  7.495E-05 0.000E+00

     total cpu time spent up to now is       57.7 secs

     End of self-consistent calculation

          k = 0.0000 0.0000 0.0000 ( 18535 PWs)   bands (ev):

    -6.7794  -5.0642  -4.9123  -4.9122  -4.9122  -4.9122  -4.8306  -4.8306
    -4.8306  -4.8305  -4.8201  -4.6751  -4.6751  -4.3538  -4.3538  -3.9829
    -3.9829  -3.9829  -3.9829  -3.8801  -3.8054  -3.8054  -3.8054  -3.8054
    -3.4841  -3.4841  -3.4841  -3.4841  -3.3462  -3.3462  -3.3462  -3.3462
    -2.9437  -2.9437  -2.9437  -2.9437  -2.9235  -2.9235  -2.9235  -2.9235
    -2.8517  -2.8517  -2.8516  -2.8516  -2.7886  -2.7886  -2.7886  -2.7886
    -2.7214  -2.7214  -2.5160  -2.2942  -2.2942  -2.2942  -2.2942  -2.1299
    -2.1299  -2.1299  -2.1299  -2.0574  -2.0574  -2.0439  -2.0439  -2.0439
    -2.0439  -1.7834  -1.6679  -1.6679  -1.4993  -1.4993  -1.4993  -1.4993
    -1.4971  -1.4971  -1.4971  -1.4971  -1.4868  -1.4868  -1.4868  -1.4868
    -1.3356  -1.3356  -1.2629  -1.2266  -0.7011  -0.7011   0.8960   0.8960
     0.8960   0.8960   1.0593   1.0593   1.0593   1.0593   2.1892   3.3300
     3.3301   3.3301   3.3301   4.0033   4.0033   5.2023   5.4563   5.4563
     5.4565   5.4565

     occupation numbers 
     1.0000   1.0000   1.0000   1.0000   1.0000   1.0000   1.0000   1.0000
     1.0000   1.0000   1.0000   1.0000   1.0000   1.0000   1.0000   1.0000
     1.0000   1.0000   1.0000   1.0000   1.0000   1.0000   1.0000   1.0000
     1.0000   1.0000   1.0000   1.0000   1.0000   1.0000   1.0000   1.0000
     1.0000   1.0000   1.0000   1.0000   1.0000   1.0000   1.0000   1.0000
     1.0000   1.0000   1.0000   1.0000   1.0000   1.0000   1.0000   1.0000
     1.0000   1.0000   1.0000   1.0000   1.0000   1.0000   1.0000   1.0000
     1.0000   1.0000   1.0000   1.0000   1.0000   1.0000   1.0000   1.0000
     1.0000   1.0000   1.0000   1.0000   1.0000   1.0000   1.0000   1.0000
     1.0000   1.0000   1.0000   1.0000   1.0000   1.0000   1.0000   1.0000
     1.0000   1.0000   1.0000   1.0000   1.0000   1.0000   0.0000   0.0000
     0.0000   0.0000   0.0000   0.0000   0.0000   0.0000   0.0000   0.0000
     0.0000   0.0000   0.0000   0.0000   0.0000   0.0000   0.0000   0.0000
     0.0000   0.0000

          k = 0.0000 0.1250 0.0000 ( 18479 PWs)   bands (ev):

    -6.7392  -5.1337  -5.0312  -4.9425  -4.9425  -4.8530  -4.8530  -4.8356
    -4.8356  -4.8003  -4.6585  -4.6517  -4.6210  -4.3445  -4.3432  -4.0563
    -4.0401  -4.0400  -3.9894  -3.8747  -3.8683  -3.8613  -3.7907  -3.7907
    -3.5843  -3.5367  -3.5367  -3.4178  -3.4178  -3.3386  -3.3386  -3.0978
    -3.0477  -3.0429  -3.0180  -3.0011  -3.0010  -2.8833  -2.8833  -2.8729
    -2.8729  -2.8309  -2.8309  -2.8165  -2.8165  -2.7449  -2.7346  -2.7285
    -2.7239  -2.5590  -2.5157  -2.4339  -2.2258  -2.2258  -2.1659  -2.1062
    -2.1062  -2.0883  -2.0767  -2.0728  -2.0728  -2.0581  -2.0303  -2.0011
    -2.0011  -1.8186  -1.6779  -1.6721  -1.5743  -1.5624  -1.5623  -1.5562
    -1.5562  -1.4972  -1.4813  -1.4728  -1.4728  -1.4126  -1.4126  -1.3631
    -1.3397  -1.2829  -1.2823  -1.1752  -0.7859  -0.7414   0.2927   0.2927
     0.5895   1.0881   1.0882   1.5839   1.5839   1.5888   2.2691   2.7736
     2.7736   3.4522   3.9464   3.9464   4.1217   4.8506   5.2390   5.4788
     5.4790   5.5661

     occupation numbers 
     1.0000   1.0000   1.0000   1.0000   1.0000   1.0000   1.0000   1.0000
     1.0000   1.0000   1.0000   1.0000   1.0000   1.0000   1.0000   1.0000
     1.0000   1.0000   1.0000   1.0000   1.0000   1.0000   1.0000   1.0000
     1.0000   1.0000   1.0000   1.0000   1.0000   1.0000   1.0000   1.0000
     1.0000   1.0000   1.0000   1.0000   1.0000   1.0000   1.0000   1.0000
     1.0000   1.0000   1.0000   1.0000   1.0000   1.0000   1.0000   1.0000
     1.0000   1.0000   1.0000   1.0000   1.0000   1.0000   1.0000   1.0000
     1.0000   1.0000   1.0000   1.0000   1.0000   1.0000   1.0000   1.0000
     1.0000   1.0000   1.0000   1.0000   1.0000   1.0000   1.0000   1.0000
     1.0000   1.0000   1.0000   1.0000   1.0000   1.0000   1.0000   1.0000
     1.0000   1.0000   1.0000   1.0000   1.0000   1.0000   0.3439   0.3436
     0.0000   0.0000   0.0000   0.0000   0.0000   0.0000   0.0000   0.0000
     0.0000   0.0000   0.0000   0.0000   0.0000   0.0000   0.0000   0.0000
     0.0000   0.0000

          k = 0.0000 0.2500 0.0000 ( 18469 PWs)   bands (ev):

    -6.6198  -5.4871  -4.9473  -4.9473  -4.9338  -4.8510  -4.8510  -4.7635
    -4.7635  -4.7415  -4.6128  -4.5830  -4.5125  -4.3140  -4.3119  -4.1970
    -4.1756  -4.1755  -4.0731  -4.0457  -4.0045  -3.8050  -3.8043  -3.7553
    -3.7553  -3.5789  -3.5789  -3.3375  -3.3375  -3.3106  -3.3106  -3.2325
    -3.0675  -3.0421  -3.0421  -3.0401  -2.9464  -2.9464  -2.9454  -2.9454
    -2.9220  -2.9220  -2.8469  -2.8056  -2.7730  -2.6508  -2.6508  -2.5331
    -2.5160  -2.4898  -2.4279  -2.3535  -2.1297  -2.1231  -2.1106  -2.1106
    -2.0663  -2.0663  -2.0623  -2.0426  -2.0426  -1.9394  -1.9393  -1.9255
    -1.9118  -1.8889  -1.7123  -1.6850  -1.6434  -1.6434  -1.6251  -1.6251
    -1.6047  -1.4877  -1.4877  -1.4570  -1.4541  -1.4283  -1.3515  -1.3448
    -1.3121  -1.3121  -1.0283  -1.0158  -0.8607  -0.8544  -0.2216  -0.2216
     0.1716   1.1771   1.1772   2.1844   2.2300   2.2300   2.4173   2.4174
     2.4948   2.4949   4.2795   4.4523   4.5848   4.5848   5.0175   5.3489
     5.5357   5.5359

     occupation numbers 
     1.0000   1.0000   1.0000   1.0000   1.0000   1.0000   1.0000   1.0000
     1.0000   1.0000   1.0000   1.0000   1.0000   1.0000   1.0000   1.0000
     1.0000   1.0000   1.0000   1.0000   1.0000   1.0000   1.0000   1.0000
     1.0000   1.0000   1.0000   1.0000   1.0000   1.0000   1.0000   1.0000
     1.0000   1.0000   1.0000   1.0000   1.0000   1.0000   1.0000   1.0000
     1.0000   1.0000   1.0000   1.0000   1.0000   1.0000   1.0000   1.0000
     1.0000   1.0000   1.0000   1.0000   1.0000   1.0000   1.0000   1.0000
     1.0000   1.0000   1.0000   1.0000   1.0000   1.0000   1.0000   1.0000
     1.0000   1.0000   1.0000   1.0000   1.0000   1.0000   1.0000   1.0000
     1.0000   1.0000   1.0000   1.0000   1.0000   1.0000   1.0000   1.0000
     1.0000   1.0000   1.0000   1.0000   1.0000   1.0000   1.0000   1.0000
     0.9999   0.0000   0.0000   0.0000   0.0000   0.0000   0.0000   0.0000
     0.0000   0.0000   0.0000   0.0000   0.0000   0.0000   0.0000   0.0000
     0.0000   0.0000

          k = 0.0000 0.3750 0.0000 ( 18440 PWs)   bands (ev):

    -6.4247  -5.8413  -4.9323  -4.9323  -4.8757  -4.8757  -4.7764  -4.6456
    -4.6448  -4.6448  -4.5524  -4.4814  -4.4734  -4.3612  -4.3391  -4.3391
    -4.3236  -4.2617  -4.2534  -4.1683  -4.1207  -3.9965  -3.7122  -3.7086
    -3.7086  -3.6177  -3.6177  -3.4230  -3.2546  -3.2546  -3.2471  -3.2471
    -3.0628  -3.0628  -3.0460  -3.0460  -3.0279  -3.0252  -3.0252  -3.0114
    -3.0114  -2.9824  -2.8836  -2.8326  -2.6183  -2.5197  -2.4761  -2.4685
    -2.4685  -2.3956  -2.2051  -2.2016  -2.1829  -2.1829  -2.0981  -2.0773
    -2.0765  -2.0118  -1.9544  -1.9544  -1.8861  -1.8861  -1.8692  -1.8692
    -1.8072  -1.7796  -1.7470  -1.7470  -1.7306  -1.7085  -1.6778  -1.6778
    -1.5971  -1.5465  -1.5465  -1.5003  -1.4451  -1.4241  -1.3705  -1.3580
    -1.3386  -1.1720  -1.1720  -1.0187  -0.8066  -0.6417  -0.6417  -0.2109
    -0.2000   1.3330   1.3330   1.5168   1.8766   1.8767   2.8358   2.8465
     3.2224   3.2224   3.7468   4.3093   4.9424   5.1269   5.1269   5.1588
     5.1589   5.5838

     occupation numbers 
     1.0000   1.0000   1.0000   1.0000   1.0000   1.0000   1.0000   1.0000
     1.0000   1.0000   1.0000   1.0000   1.0000   1.0000   1.0000   1.0000
     1.0000   1.0000   1.0000   1.0000   1.0000   1.0000   1.0000   1.0000
     1.0000   1.0000   1.0000   1.0000   1.0000   1.0000   1.0000   1.0000
     1.0000   1.0000   1.0000   1.0000   1.0000   1.0000   1.0000   1.0000
     1.0000   1.0000   1.0000   1.0000   1.0000   1.0000   1.0000   1.0000
     1.0000   1.0000   1.0000   1.0000   1.0000   1.0000   1.0000   1.0000
     1.0000   1.0000   1.0000   1.0000   1.0000   1.0000   1.0000   1.0000
     1.0000   1.0000   1.0000   1.0000   1.0000   1.0000   1.0000   1.0000
     1.0000   1.0000   1.0000   1.0000   1.0000   1.0000   1.0000   1.0000
     1.0000   1.0000   1.0000   1.0000   1.0000   1.0000   1.0000   1.0000
     1.0000   0.0000   0.0000   0.0000   0.0000   0.0000   0.0000   0.0000
     0.0000   0.0000   0.0000   0.0000   0.0000   0.0000   0.0000   0.0000
     0.0000   0.0000

          k = 0.0000-0.5000 0.0000 ( 18412 PWs)   bands (ev):

    -6.1611  -6.1610  -4.9055  -4.9055  -4.9054  -4.9054  -4.5679  -4.5678
    -4.5162  -4.5161  -4.5011  -4.5011  -4.5007  -4.5007  -4.5006  -4.5006
    -4.3310  -4.3309  -4.1961  -4.1960  -4.1491  -4.1491  -3.6604  -3.6604
    -3.6604  -3.6604  -3.5841  -3.5840  -3.1864  -3.1864  -3.1863  -3.1863
    -3.1116  -3.1116  -3.1116  -3.1116  -3.0538  -3.0538  -3.0538  -3.0538
    -2.9618  -2.9618  -2.9064  -2.9063  -2.5335  -2.5335  -2.3109  -2.3109
    -2.3043  -2.3043  -2.3043  -2.3043  -2.2935  -2.2935  -2.1153  -2.1152
    -1.8834  -1.8834  -1.8536  -1.8536  -1.8536  -1.8536  -1.8141  -1.8141
    -1.8141  -1.8141  -1.7463  -1.7463  -1.7047  -1.7047  -1.6461  -1.6461
    -1.6461  -1.6461  -1.5772  -1.5772  -1.5598  -1.5598  -1.3954  -1.3953
    -1.2006  -1.2006  -0.9582  -0.9582  -0.9582  -0.9582  -0.5273  -0.5272
     0.5998   0.5999   1.5641   1.5642   1.5642   1.5642   3.2608   3.2608
     3.5646   3.5646   4.1438   4.1439   4.1439   4.1439   5.5086   5.5086
     5.5087   5.5087

     occupation numbers 
     1.0000   1.0000   1.0000   1.0000   1.0000   1.0000   1.0000   1.0000
     1.0000   1.0000   1.0000   1.0000   1.0000   1.0000   1.0000   1.0000
     1.0000   1.0000   1.0000   1.0000   1.0000   1.0000   1.0000   1.0000
     1.0000   1.0000   1.0000   1.0000   1.0000   1.0000   1.0000   1.0000
     1.0000   1.0000   1.0000   1.0000   1.0000   1.0000   1.0000   1.0000
     1.0000   1.0000   1.0000   1.0000   1.0000   1.0000   1.0000   1.0000
     1.0000   1.0000   1.0000   1.0000   1.0000   1.0000   1.0000   1.0000
     1.0000   1.0000   1.0000   1.0000   1.0000   1.0000   1.0000   1.0000
     1.0000   1.0000   1.0000   1.0000   1.0000   1.0000   1.0000   1.0000
     1.0000   1.0000   1.0000   1.0000   1.0000   1.0000   1.0000   1.0000
     1.0000   1.0000   1.0000   1.0000   1.0000   1.0000   1.0000   1.0000
     0.0000   0.0000   0.0000   0.0000   0.0000   0.0000   0.0000   0.0000
     0.0000   0.0000   0.0000   0.0000   0.0000   0.0000   0.0000   0.0000
     0.0000   0.0000

          k = 0.1250 0.1250 0.0000 ( 18469 PWs)   bands (ev):

    -6.6997  -5.1326  -5.1326  -5.0147  -5.0043  -4.8465  -4.8465  -4.8312
    -4.7754  -4.6353  -4.6353  -4.6260  -4.6260  -4.3343  -4.3343  -4.1385
    -4.1385  -4.0299  -4.0299  -3.8497  -3.8497  -3.8423  -3.8290  -3.8290
    -3.5947  -3.5740  -3.5740  -3.4620  -3.4620  -3.3624  -3.1034  -3.1034
    -3.0401  -3.0401  -3.0115  -3.0115  -2.9956  -2.9956  -2.9698  -2.9698
    -2.8565  -2.8565  -2.8425  -2.8107  -2.7967  -2.7160  -2.6340  -2.6340
    -2.5850  -2.5850  -2.5157  -2.3960  -2.3960  -2.1789  -2.1329  -2.1329
    -2.0767  -2.0767  -2.0335  -2.0258  -2.0258  -2.0118  -2.0118  -1.9658
    -1.9658  -1.8477  -1.6846  -1.6846  -1.6201  -1.6201  -1.5776  -1.5632
    -1.5632  -1.5173  -1.5173  -1.4377  -1.4377  -1.4259  -1.4126  -1.3105
    -1.2977  -1.2146  -1.2146  -1.1312  -0.8244  -0.8244  -0.3130   0.6124
     0.6124   0.9925   0.9925   1.6253   1.6253   2.0799   2.3460   2.3741
     3.4256   3.4256   3.5533   3.5533   4.4754   4.8804   4.8804   5.2756
     5.6580   6.0731

     occupation numbers 
     1.0000   1.0000   1.0000   1.0000   1.0000   1.0000   1.0000   1.0000
     1.0000   1.0000   1.0000   1.0000   1.0000   1.0000   1.0000   1.0000
     1.0000   1.0000   1.0000   1.0000   1.0000   1.0000   1.0000   1.0000
     1.0000   1.0000   1.0000   1.0000   1.0000   1.0000   1.0000   1.0000
     1.0000   1.0000   1.0000   1.0000   1.0000   1.0000   1.0000   1.0000
     1.0000   1.0000   1.0000   1.0000   1.0000   1.0000   1.0000   1.0000
     1.0000   1.0000   1.0000   1.0000   1.0000   1.0000   1.0000   1.0000
     1.0000   1.0000   1.0000   1.0000   1.0000   1.0000   1.0000   1.0000
     1.0000   1.0000   1.0000   1.0000   1.0000   1.0000   1.0000   1.0000
     1.0000   1.0000   1.0000   1.0000   1.0000   1.0000   1.0000   1.0000
     1.0000   1.0000   1.0000   1.0000   1.0000   1.0000   1.0000   0.0000
     0.0000   0.0000   0.0000   0.0000   0.0000   0.0000   0.0000   0.0000
     0.0000   0.0000   0.0000   0.0000   0.0000   0.0000   0.0000   0.0000
     0.0000   0.0000

          k = 0.1250 0.2500 0.0000 ( 18472 PWs)   bands (ev):

    -6.5825  -5.4764  -5.1294  -5.0647  -4.9265  -4.8168  -4.7784  -4.7272
    -4.6996  -4.6432  -4.5907  -4.5674  -4.5128  -4.3047  -4.3042  -4.3014
    -4.2874  -4.1352  -4.0812  -3.9735  -3.9721  -3.7995  -3.7929  -3.7855
    -3.7714  -3.6378  -3.5394  -3.5039  -3.3741  -3.2952  -3.2197  -3.1023
    -3.0997  -3.0825  -3.0653  -3.0277  -3.0142  -2.9760  -2.9728  -2.8755
    -2.8633  -2.8513  -2.8420  -2.8103  -2.7840  -2.7279  -2.6283  -2.5168
    -2.4749  -2.4319  -2.4306  -2.3794  -2.2836  -2.2826  -2.1277  -2.0791
    -2.0610  -2.0519  -2.0348  -1.9600  -1.9585  -1.9419  -1.9149  -1.8990
    -1.8757  -1.8654  -1.7281  -1.7053  -1.6904  -1.6705  -1.6533  -1.6288
    -1.5926  -1.5568  -1.5128  -1.4657  -1.4147  -1.3994  -1.3722  -1.3532
    -1.3034  -1.0454  -1.0332  -0.9949  -0.9313  -0.8084  -0.7595   0.1910
     0.4639   0.6843   1.6814   1.7357   1.7774   2.2276   2.5644   2.5993
     2.9506   3.0394   3.8085   4.1483   4.3160   4.9311   4.9644   5.3853
     5.4770   5.6401

     occupation numbers 
     1.0000   1.0000   1.0000   1.0000   1.0000   1.0000   1.0000   1.0000
     1.0000   1.0000   1.0000   1.0000   1.0000   1.0000   1.0000   1.0000
     1.0000   1.0000   1.0000   1.0000   1.0000   1.0000   1.0000   1.0000
     1.0000   1.0000   1.0000   1.0000   1.0000   1.0000   1.0000   1.0000
     1.0000   1.0000   1.0000   1.0000   1.0000   1.0000   1.0000   1.0000
     1.0000   1.0000   1.0000   1.0000   1.0000   1.0000   1.0000   1.0000
     1.0000   1.0000   1.0000   1.0000   1.0000   1.0000   1.0000   1.0000
     1.0000   1.0000   1.0000   1.0000   1.0000   1.0000   1.0000   1.0000
     1.0000   1.0000   1.0000   1.0000   1.0000   1.0000   1.0000   1.0000
     1.0000   1.0000   1.0000   1.0000   1.0000   1.0000   1.0000   1.0000
     1.0000   1.0000   1.0000   1.0000   1.0000   1.0000   1.0000   0.9991
     0.0000   0.0000   0.0000   0.0000   0.0000   0.0000   0.0000   0.0000
     0.0000   0.0000   0.0000   0.0000   0.0000   0.0000   0.0000   0.0000
     0.0000   0.0000

          k = 0.1250 0.3750 0.0000 ( 18461 PWs)   bands (ev):

    -6.3913  -5.8213  -5.1240  -5.0963  -4.8066  -4.7716  -4.6941  -4.6755
    -4.5876  -4.5711  -4.5331  -4.4827  -4.4748  -4.4597  -4.4413  -4.2779
    -4.2557  -4.2445  -4.1803  -4.1791  -4.1032  -3.9853  -3.7294  -3.7252
    -3.6918  -3.6701  -3.5602  -3.4747  -3.4026  -3.3120  -3.2206  -3.1624
    -3.1227  -3.0976  -3.0962  -3.0653  -3.0120  -2.9989  -2.9617  -2.9417
    -2.9055  -2.8957  -2.8682  -2.7694  -2.6974  -2.6227  -2.5220  -2.4670
    -2.4182  -2.3980  -2.2723  -2.2546  -2.2014  -2.1871  -2.1122  -2.1040
    -2.0938  -2.0077  -2.0034  -1.9555  -1.8865  -1.8838  -1.8354  -1.8194
    -1.8172  -1.7833  -1.7744  -1.7446  -1.7404  -1.7230  -1.7048  -1.6573
    -1.6334  -1.6032  -1.5858  -1.4912  -1.4483  -1.3806  -1.3758  -1.3415
    -1.3182  -1.3111  -1.1320  -1.0825  -0.7810  -0.7599  -0.1814  -0.0927
    -0.0036   0.8144   1.3030   1.6298   1.9224   2.5026   2.6772   2.8879
     2.8962   3.7904   3.8578   3.9831   4.5897   4.9015   4.9729   5.0835
     5.1808   5.6871

     occupation numbers 
     1.0000   1.0000   1.0000   1.0000   1.0000   1.0000   1.0000   1.0000
     1.0000   1.0000   1.0000   1.0000   1.0000   1.0000   1.0000   1.0000
     1.0000   1.0000   1.0000   1.0000   1.0000   1.0000   1.0000   1.0000
     1.0000   1.0000   1.0000   1.0000   1.0000   1.0000   1.0000   1.0000
     1.0000   1.0000   1.0000   1.0000   1.0000   1.0000   1.0000   1.0000
     1.0000   1.0000   1.0000   1.0000   1.0000   1.0000   1.0000   1.0000
     1.0000   1.0000   1.0000   1.0000   1.0000   1.0000   1.0000   1.0000
     1.0000   1.0000   1.0000   1.0000   1.0000   1.0000   1.0000   1.0000
     1.0000   1.0000   1.0000   1.0000   1.0000   1.0000   1.0000   1.0000
     1.0000   1.0000   1.0000   1.0000   1.0000   1.0000   1.0000   1.0000
     1.0000   1.0000   1.0000   1.0000   1.0000   1.0000   1.0000   1.0000
     1.0000   0.0000   0.0000   0.0000   0.0000   0.0000   0.0000   0.0000
     0.0000   0.0000   0.0000   0.0000   0.0000   0.0000   0.0000   0.0000
     0.0000   0.0000

          k = 0.1250-0.5000 0.0000 ( 18454 PWs)   bands (ev):

    -6.1335  -6.1334  -5.1143  -5.1142  -4.7210  -4.7209  -4.6553  -4.6553
    -4.5801  -4.5801  -4.4875  -4.4874  -4.4343  -4.4343  -4.3927  -4.3927
    -4.3222  -4.3222  -4.1904  -4.1903  -4.1392  -4.1392  -3.6981  -3.6981
    -3.6390  -3.6390  -3.5629  -3.5629  -3.3829  -3.3828  -3.1480  -3.1480
    -3.1206  -3.1206  -3.0830  -3.0830  -3.0405  -3.0405  -2.9518  -2.9518
    -2.9503  -2.9502  -2.8320  -2.8320  -2.5382  -2.5381  -2.5358  -2.5358
    -2.3087  -2.3086  -2.2921  -2.2920  -2.1426  -2.1426  -2.1217  -2.1216
    -1.9891  -1.9891  -1.9727  -1.9727  -1.8641  -1.8641  -1.7945  -1.7944
    -1.7866  -1.7865  -1.7593  -1.7593  -1.6901  -1.6901  -1.6454  -1.6453
    -1.6415  -1.6415  -1.6342  -1.6342  -1.5752  -1.5751  -1.3463  -1.3462
    -1.2501  -1.2501  -1.2424  -1.2424  -0.5066  -0.5065  -0.4126  -0.4126
     0.7190   0.7190   1.0162   1.0162   2.1865   2.1865   3.3123   3.3123
     3.5611   3.5611   3.5894   3.5894   4.7482   4.7482   5.1398   5.1399
     5.1902   5.1902

     occupation numbers 
     1.0000   1.0000   1.0000   1.0000   1.0000   1.0000   1.0000   1.0000
     1.0000   1.0000   1.0000   1.0000   1.0000   1.0000   1.0000   1.0000
     1.0000   1.0000   1.0000   1.0000   1.0000   1.0000   1.0000   1.0000
     1.0000   1.0000   1.0000   1.0000   1.0000   1.0000   1.0000   1.0000
     1.0000   1.0000   1.0000   1.0000   1.0000   1.0000   1.0000   1.0000
     1.0000   1.0000   1.0000   1.0000   1.0000   1.0000   1.0000   1.0000
     1.0000   1.0000   1.0000   1.0000   1.0000   1.0000   1.0000   1.0000
     1.0000   1.0000   1.0000   1.0000   1.0000   1.0000   1.0000   1.0000
     1.0000   1.0000   1.0000   1.0000   1.0000   1.0000   1.0000   1.0000
     1.0000   1.0000   1.0000   1.0000   1.0000   1.0000   1.0000   1.0000
     1.0000   1.0000   1.0000   1.0000   1.0000   1.0000   1.0000   1.0000
     0.0000   0.0000   0.0000   0.0000   0.0000   0.0000   0.0000   0.0000
     0.0000   0.0000   0.0000   0.0000   0.0000   0.0000   0.0000   0.0000
     0.0000   0.0000

          k = 0.2500 0.2500 0.0000 ( 18475 PWs)   bands (ev):

    -6.4721  -5.4457  -5.4457  -5.1681  -4.8949  -4.7671  -4.6766  -4.6766
    -4.5861  -4.5264  -4.5263  -4.5175  -4.5175  -4.4390  -4.4390  -4.2770
    -4.2770  -4.1567  -4.1567  -3.9087  -3.9087  -3.8516  -3.8516  -3.7554
    -3.7554  -3.7272  -3.6784  -3.4393  -3.4393  -3.2426  -3.1860  -3.1860
    -3.1649  -3.1649  -3.0976  -3.0976  -2.9695  -2.8888  -2.8888  -2.8306
    -2.8306  -2.7978  -2.7875  -2.7875  -2.7158  -2.7035  -2.6059  -2.6059
    -2.5204  -2.4648  -2.4242  -2.4242  -2.2940  -2.2940  -2.1269  -2.1269
    -2.1257  -2.0016  -1.9447  -1.9447  -1.8763  -1.8763  -1.8442  -1.8442
    -1.8383  -1.8383  -1.7745  -1.7744  -1.7376  -1.7376  -1.6901  -1.6901
    -1.6363  -1.6352  -1.4902  -1.4902  -1.3900  -1.3549  -1.3549  -1.3372
    -1.2815  -1.2681  -1.1239  -1.1239  -0.8855  -0.4980  -0.4980   0.2530
     0.2530   1.2027   1.2352   1.2352   2.3547   2.3547   2.7637   2.8740
     2.8740   3.7082   3.7082   3.7595   4.4221   4.4221   5.0668   5.1379
     5.1379   5.4946

     occupation numbers 
     1.0000   1.0000   1.0000   1.0000   1.0000   1.0000   1.0000   1.0000
     1.0000   1.0000   1.0000   1.0000   1.0000   1.0000   1.0000   1.0000
     1.0000   1.0000   1.0000   1.0000   1.0000   1.0000   1.0000   1.0000
     1.0000   1.0000   1.0000   1.0000   1.0000   1.0000   1.0000   1.0000
     1.0000   1.0000   1.0000   1.0000   1.0000   1.0000   1.0000   1.0000
     1.0000   1.0000   1.0000   1.0000   1.0000   1.0000   1.0000   1.0000
     1.0000   1.0000   1.0000   1.0000   1.0000   1.0000   1.0000   1.0000
     1.0000   1.0000   1.0000   1.0000   1.0000   1.0000   1.0000   1.0000
     1.0000   1.0000   1.0000   1.0000   1.0000   1.0000   1.0000   1.0000
     1.0000   1.0000   1.0000   1.0000   1.0000   1.0000   1.0000   1.0000
     1.0000   1.0000   1.0000   1.0000   1.0000   1.0000   1.0000   0.8346
     0.8346   0.0000   0.0000   0.0000   0.0000   0.0000   0.0000   0.0000
     0.0000   0.0000   0.0000   0.0000   0.0000   0.0000   0.0000   0.0000
     0.0000   0.0000

          k = 0.2500 0.3750 0.0000 ( 18485 PWs)   bands (ev):

    -6.2927  -5.7630  -5.3973  -5.2577  -4.8285  -4.7271  -4.6209  -4.5927
    -4.5606  -4.5352  -4.5320  -4.4792  -4.4604  -4.4277  -4.4198  -4.2627
    -4.2298  -4.2179  -4.2163  -4.0439  -4.0129  -3.9483  -3.8137  -3.7713
    -3.7056  -3.6861  -3.6311  -3.5585  -3.4772  -3.3444  -3.1887  -3.1521
    -3.1519  -3.1513  -3.1355  -3.0594  -3.0265  -2.9426  -2.8194  -2.8064
    -2.8063  -2.8060  -2.8045  -2.7143  -2.6996  -2.6325  -2.6283  -2.5429
    -2.5298  -2.4425  -2.4096  -2.3345  -2.2066  -2.2029  -2.1838  -2.1812
    -2.1493  -2.1275  -1.9230  -1.9085  -1.8815  -1.8525  -1.8410  -1.8389
    -1.8086  -1.8072  -1.7833  -1.7635  -1.7624  -1.7339  -1.7247  -1.7023
    -1.6691  -1.6560  -1.6270  -1.5307  -1.4648  -1.4149  -1.3534  -1.3191
    -1.3105  -1.2983  -1.2648  -1.2262  -0.6970  -0.1406  -0.1210   0.2063
     0.3687   0.7353   0.8283   1.9268   2.0682   2.5531   2.9905   3.0713
     3.2202   3.3201   3.9181   4.1101   4.5343   4.5474   4.5869   4.6969
     4.9796   5.1275

     occupation numbers 
     1.0000   1.0000   1.0000   1.0000   1.0000   1.0000   1.0000   1.0000
     1.0000   1.0000   1.0000   1.0000   1.0000   1.0000   1.0000   1.0000
     1.0000   1.0000   1.0000   1.0000   1.0000   1.0000   1.0000   1.0000
     1.0000   1.0000   1.0000   1.0000   1.0000   1.0000   1.0000   1.0000
     1.0000   1.0000   1.0000   1.0000   1.0000   1.0000   1.0000   1.0000
     1.0000   1.0000   1.0000   1.0000   1.0000   1.0000   1.0000   1.0000
     1.0000   1.0000   1.0000   1.0000   1.0000   1.0000   1.0000   1.0000
     1.0000   1.0000   1.0000   1.0000   1.0000   1.0000   1.0000   1.0000
     1.0000   1.0000   1.0000   1.0000   1.0000   1.0000   1.0000   1.0000
     1.0000   1.0000   1.0000   1.0000   1.0000   1.0000   1.0000   1.0000
     1.0000   1.0000   1.0000   1.0000   1.0000   1.0000   1.0000   0.9952
     0.0012   0.0000   0.0000   0.0000   0.0000   0.0000   0.0000   0.0000
     0.0000   0.0000   0.0000   0.0000   0.0000   0.0000   0.0000   0.0000
     0.0000   0.0000

          k = 0.2500-0.5000 0.0000 ( 18486 PWs)   bands (ev):

    -6.0521  -6.0520  -5.3342  -5.3341  -4.7262  -4.7262  -4.6578  -4.6578
    -4.5709  -4.5708  -4.4521  -4.4521  -4.3911  -4.3910  -4.3138  -4.3137
    -4.2188  -4.2188  -4.1566  -4.1565  -4.1062  -4.1062  -3.7301  -3.7300
    -3.6930  -3.6929  -3.5862  -3.5861  -3.5005  -3.5004  -3.1513  -3.1513
    -3.1281  -3.1281  -3.0693  -3.0692  -2.9922  -2.9922  -2.9052  -2.9052
    -2.7558  -2.7558  -2.7523  -2.7522  -2.7292  -2.7291  -2.5513  -2.5512
    -2.3278  -2.3278  -2.3057  -2.3057  -2.2410  -2.2410  -2.2378  -2.2378
    -2.0822  -2.0822  -2.0514  -2.0514  -1.8803  -1.8802  -1.8273  -1.8272
    -1.8010  -1.8010  -1.7712  -1.7711  -1.7627  -1.7627  -1.7221  -1.7221
    -1.5882  -1.5882  -1.5726  -1.5726  -1.5658  -1.5658  -1.3269  -1.3269
    -1.2905  -1.2905  -1.2851  -1.2851  -0.4390  -0.4390   0.2755   0.2756
     0.5545   0.5546   1.0258   1.0259   2.7028   2.7028   3.2573   3.2573
     3.3933   3.3934   3.4629   3.4629   4.5758   4.5758   4.7881   4.7882
     5.3908   5.3908

     occupation numbers 
     1.0000   1.0000   1.0000   1.0000   1.0000   1.0000   1.0000   1.0000
     1.0000   1.0000   1.0000   1.0000   1.0000   1.0000   1.0000   1.0000
     1.0000   1.0000   1.0000   1.0000   1.0000   1.0000   1.0000   1.0000
     1.0000   1.0000   1.0000   1.0000   1.0000   1.0000   1.0000   1.0000
     1.0000   1.0000   1.0000   1.0000   1.0000   1.0000   1.0000   1.0000
     1.0000   1.0000   1.0000   1.0000   1.0000   1.0000   1.0000   1.0000
     1.0000   1.0000   1.0000   1.0000   1.0000   1.0000   1.0000   1.0000
     1.0000   1.0000   1.0000   1.0000   1.0000   1.0000   1.0000   1.0000
     1.0000   1.0000   1.0000   1.0000   1.0000   1.0000   1.0000   1.0000
     1.0000   1.0000   1.0000   1.0000   1.0000   1.0000   1.0000   1.0000
     1.0000   1.0000   1.0000   1.0000   1.0000   1.0000   0.5767   0.5762
     0.0000   0.0000   0.0000   0.0000   0.0000   0.0000   0.0000   0.0000
     0.0000   0.0000   0.0000   0.0000   0.0000   0.0000   0.0000   0.0000
     0.0000   0.0000

          k = 0.3750 0.3750 0.0000 ( 18488 PWs)   bands (ev):

    -6.1335  -5.6708  -5.6708  -5.4112  -4.8129  -4.7372  -4.6720  -4.6720
    -4.4868  -4.4868  -4.4511  -4.4511  -4.4044  -4.4044  -4.2837  -4.2837
    -4.2320  -4.1622  -4.1622  -3.9450  -3.9450  -3.8785  -3.8785  -3.8670
    -3.8670  -3.7327  -3.6529  -3.6529  -3.5320  -3.2619  -3.2619  -3.1685
    -3.1451  -3.1451  -3.1401  -3.0410  -3.0410  -2.8626  -2.7575  -2.7575
    -2.7426  -2.7252  -2.7252  -2.6944  -2.6309  -2.6309  -2.6262  -2.6262
    -2.5722  -2.5444  -2.4185  -2.4185  -2.3743  -2.2672  -2.2672  -2.1939
    -2.1373  -2.1373  -1.9760  -1.9760  -1.9182  -1.9182  -1.9100  -1.9100
    -1.8561  -1.8561  -1.8369  -1.8110  -1.6778  -1.6778  -1.6758  -1.6758
    -1.6511  -1.6327  -1.6327  -1.5070  -1.4678  -1.4678  -1.3780  -1.3780
    -1.2801  -1.2789  -1.2789  -1.2437  -0.5418  -0.0062  -0.0062   0.4551
     0.6051   0.6051   1.5495   1.5495   2.3285   2.3285   2.9850   2.9850
     3.3462   3.9276   3.9276   4.1210   4.1210   4.1601   4.1601   4.6847
     5.2878   5.3872

     occupation numbers 
     1.0000   1.0000   1.0000   1.0000   1.0000   1.0000   1.0000   1.0000
     1.0000   1.0000   1.0000   1.0000   1.0000   1.0000   1.0000   1.0000
     1.0000   1.0000   1.0000   1.0000   1.0000   1.0000   1.0000   1.0000
     1.0000   1.0000   1.0000   1.0000   1.0000   1.0000   1.0000   1.0000
     1.0000   1.0000   1.0000   1.0000   1.0000   1.0000   1.0000   1.0000
     1.0000   1.0000   1.0000   1.0000   1.0000   1.0000   1.0000   1.0000
     1.0000   1.0000   1.0000   1.0000   1.0000   1.0000   1.0000   1.0000
     1.0000   1.0000   1.0000   1.0000   1.0000   1.0000   1.0000   1.0000
     1.0000   1.0000   1.0000   1.0000   1.0000   1.0000   1.0000   1.0000
     1.0000   1.0000   1.0000   1.0000   1.0000   1.0000   1.0000   1.0000
     1.0000   1.0000   1.0000   1.0000   1.0000   1.0000   1.0000   0.0000
     0.0000   0.0000   0.0000   0.0000   0.0000   0.0000   0.0000   0.0000
     0.0000   0.0000   0.0000   0.0000   0.0000   0.0000   0.0000   0.0000
     0.0000   0.0000

          k = 0.3750-0.5000 0.0000 ( 18506 PWs)   bands (ev):

    -5.9220  -5.9219  -5.5511  -5.5511  -4.7592  -4.7592  -4.7198  -4.7197
    -4.4588  -4.4587  -4.4106  -4.4106  -4.3737  -4.3737  -4.3329  -4.3328
    -4.0710  -4.0710  -4.0415  -4.0415  -4.0335  -4.0335  -3.8123  -3.8122
    -3.7752  -3.7752  -3.7750  -3.7749  -3.4018  -3.4018  -3.1904  -3.1904
    -3.1803  -3.1803  -3.0443  -3.0443  -2.8996  -2.8996  -2.8501  -2.8501
    -2.7310  -2.7310  -2.7111  -2.7111  -2.5849  -2.5848  -2.5658  -2.5658
    -2.4762  -2.4762  -2.4301  -2.4301  -2.4242  -2.4241  -2.3219  -2.3218
    -2.0783  -2.0783  -2.0344  -2.0343  -1.9619  -1.9619  -1.9203  -1.9202
    -1.8858  -1.8858  -1.8755  -1.8755  -1.6550  -1.6549  -1.6358  -1.6357
    -1.5793  -1.5793  -1.5395  -1.5395  -1.5233  -1.5233  -1.4164  -1.4164
    -1.2667  -1.2667  -1.2516  -1.2515  -0.3107  -0.3107   0.1803   0.1803
     1.0592   1.0593   1.4390   1.4391   2.3891   2.3891   2.7547   2.7548
     3.7020   3.7021   3.8634   3.8635   4.3843   4.3843   4.5066   4.5067
     5.0702   5.0702

     occupation numbers 
     1.0000   1.0000   1.0000   1.0000   1.0000   1.0000   1.0000   1.0000
     1.0000   1.0000   1.0000   1.0000   1.0000   1.0000   1.0000   1.0000
     1.0000   1.0000   1.0000   1.0000   1.0000   1.0000   1.0000   1.0000
     1.0000   1.0000   1.0000   1.0000   1.0000   1.0000   1.0000   1.0000
     1.0000   1.0000   1.0000   1.0000   1.0000   1.0000   1.0000   1.0000
     1.0000   1.0000   1.0000   1.0000   1.0000   1.0000   1.0000   1.0000
     1.0000   1.0000   1.0000   1.0000   1.0000   1.0000   1.0000   1.0000
     1.0000   1.0000   1.0000   1.0000   1.0000   1.0000   1.0000   1.0000
     1.0000   1.0000   1.0000   1.0000   1.0000   1.0000   1.0000   1.0000
     1.0000   1.0000   1.0000   1.0000   1.0000   1.0000   1.0000   1.0000
     1.0000   1.0000   1.0000   1.0000   1.0000   1.0000   0.9998   0.9998
     0.0000   0.0000   0.0000   0.0000   0.0000   0.0000   0.0000   0.0000
     0.0000   0.0000   0.0000   0.0000   0.0000   0.0000   0.0000   0.0000
     0.0000   0.0000

          k =-0.5000-0.5000 0.0000 ( 18528 PWs)   bands (ev):

    -5.7514  -5.7513  -5.7513  -5.7513  -4.7558  -4.7557  -4.7557  -4.7557
    -4.3812  -4.3812  -4.3812  -4.3812  -4.3812  -4.3811  -4.3811  -4.3811
    -3.9399  -3.9398  -3.9398  -3.9398  -3.9398  -3.9398  -3.9397  -3.9397
    -3.8729  -3.8728  -3.8728  -3.8728  -3.2850  -3.2849  -3.2849  -3.2849
    -3.1619  -3.1619  -3.1619  -3.1618  -2.7044  -2.7044  -2.7044  -2.7044
    -2.6694  -2.6694  -2.6694  -2.6694  -2.6694  -2.6694  -2.6694  -2.6694
    -2.5612  -2.5611  -2.5611  -2.5611  -2.3922  -2.3921  -2.3921  -2.3921
    -2.0099  -2.0099  -2.0098  -2.0098  -2.0098  -2.0098  -2.0098  -2.0098
    -1.9199  -1.9199  -1.9199  -1.9198  -1.6056  -1.6055  -1.6055  -1.6055
    -1.5159  -1.5159  -1.5159  -1.5159  -1.5159  -1.5159  -1.5159  -1.5159
    -1.2477  -1.2476  -1.2476  -1.2476  -0.1072  -0.1071  -0.1071  -0.1071
     1.9059   1.9059   1.9059   1.9059   1.9059   1.9059   1.9059   1.9060
     4.0150   4.0150   4.0150   4.0151   4.7420   4.7420   4.7420   4.7420
     4.7421   4.7421

     occupation numbers 
     1.0000   1.0000   1.0000   1.0000   1.0000   1.0000   1.0000   1.0000
     1.0000   1.0000   1.0000   1.0000   1.0000   1.0000   1.0000   1.0000
     1.0000   1.0000   1.0000   1.0000   1.0000   1.0000   1.0000   1.0000
     1.0000   1.0000   1.0000   1.0000   1.0000   1.0000   1.0000   1.0000
     1.0000   1.0000   1.0000   1.0000   1.0000   1.0000   1.0000   1.0000
     1.0000   1.0000   1.0000   1.0000   1.0000   1.0000   1.0000   1.0000
     1.0000   1.0000   1.0000   1.0000   1.0000   1.0000   1.0000   1.0000
     1.0000   1.0000   1.0000   1.0000   1.0000   1.0000   1.0000   1.0000
     1.0000   1.0000   1.0000   1.0000   1.0000   1.0000   1.0000   1.0000
     1.0000   1.0000   1.0000   1.0000   1.0000   1.0000   1.0000   1.0000
     1.0000   1.0000   1.0000   1.0000   1.0000   1.0000   1.0000   1.0000
     0.0000   0.0000   0.0000   0.0000   0.0000   0.0000   0.0000   0.0000
     0.0000   0.0000   0.0000   0.0000   0.0000   0.0000   0.0000   0.0000
     0.0000   0.0000

     the Fermi energy is     0.2811 ev

!    total energy              =   -1839.20067129 Ry
     estimated scf accuracy    <       0.00000040 Ry
     smearing contrib. (-TS)   =      -0.00054634 Ry
     internal energy E=F+TS    =   -1839.20012495 Ry

     The total energy is F=E-TS. E is the sum of the following terms:
     one-electron contribution =   -3564.43748372 Ry
     hartree contribution      =    1909.71389102 Ry
     xc contribution           =    -994.37195678 Ry
     ewald contribution        =     809.89542452 Ry

     convergence has been achieved in  11 iterations

     negative rho (up, down):  7.495E-05 0.000E+00

     Forces acting on atoms (cartesian axes, Ry/au):

     atom    1 type  1   force =     0.00000000    0.00000000    0.00859866
     atom    2 type  1   force =     0.00000000   -0.00000474   -0.00856223
     atom    3 type  1   force =    -0.00000474    0.00000000   -0.00856223
     atom    4 type  1   force =    -0.00000512   -0.00000512    0.00852173
     atom    5 type  1   force =     0.00000000    0.00000000    0.00859841
     atom    6 type  1   force =     0.00000000    0.00000474   -0.00856223
     atom    7 type  1   force =    -0.00000670    0.00000000   -0.00855860
     atom    8 type  1   force =    -0.00000512    0.00000512    0.00852173
     atom    9 type  1   force =     0.00000000    0.00000000    0.00859841
     atom   10 type  1   force =     0.00000000   -0.00000670   -0.00855860
     atom   11 type  1   force =     0.00000474    0.00000000   -0.00856223
     atom   12 type  1   force =     0.00000512   -0.00000512    0.00852173
     atom   13 type  1   force =     0.00000000    0.00000000    0.00860096
     atom   14 type  1   force =     0.00000000    0.00000670   -0.00855860
     atom   15 type  1   force =     0.00000670    0.00000000   -0.00855860
     atom   16 type  1   force =     0.00000512    0.00000512    0.00852173
     The non-local contrib.  to forces
     atom    1 type  1   force =     0.00000000    0.00000000    0.02064087
     atom    2 type  1   force =     0.00000000   -0.00000353   -0.02064252
     atom    3 type  1   force =    -0.00000353    0.00000000   -0.02064252
     atom    4 type  1   force =    -0.00000439   -0.00000439    0.02064522
     atom    5 type  1   force =     0.00000000    0.00000000    0.02064118
     atom    6 type  1   force =     0.00000000    0.00000353   -0.02064252
     atom    7 type  1   force =    -0.00000505    0.00000000   -0.02064149
     atom    8 type  1   force =    -0.00000439    0.00000439    0.02064522
     atom    9 type  1   force =     0.00000000    0.00000000    0.02064118
     atom   10 type  1   force =     0.00000000   -0.00000505   -0.02064149
     atom   11 type  1   force =     0.00000353    0.00000000   -0.02064252
     atom   12 type  1   force =     0.00000439   -0.00000439    0.02064522
     atom   13 type  1   force =     0.00000000    0.00000000    0.02064396
     atom   14 type  1   force =     0.00000000    0.00000505   -0.02064149
     atom   15 type  1   force =     0.00000505    0.00000000   -0.02064149
     atom   16 type  1   force =     0.00000439    0.00000439    0.02064522
     The ionic contribution  to forces
     atom    1 type  1   force =    -0.00003826   -0.00003826  -32.60809070
     atom    2 type  1   force =    -0.00003826   -0.00001489   32.60810726
     atom    3 type  1   force =    -0.00001489   -0.00003826   32.60810726
     atom    4 type  1   force =    -0.00001489   -0.00001489  -32.60812381
     atom    5 type  1   force =    -0.00003826    0.00001489  -32.60810726
     atom    6 type  1   force =    -0.00003826    0.00003826   32.60809070
     atom    7 type  1   force =    -0.00001489    0.00001489   32.60812381
     atom    8 type  1   force =    -0.00001489    0.00003826  -32.60810726
     atom    9 type  1   force =     0.00001489   -0.00003826  -32.60810726
     atom   10 type  1   force =     0.00001489   -0.00001489   32.60812381
     atom   11 type  1   force =     0.00003826   -0.00003826   32.60809070
     atom   12 type  1   force =     0.00003826   -0.00001489  -32.60810726
     atom   13 type  1   force =     0.00001489    0.00001489  -32.60812381
     atom   14 type  1   force =     0.00001489    0.00003826   32.60810726
     atom   15 type  1   force =     0.00003826    0.00001489   32.60810726
     atom   16 type  1   force =     0.00003826    0.00003826  -32.60809070
     The local contribution  to forces
     atom    1 type  1   force =    -0.00000000   -0.00000000   32.57018833
     atom    2 type  1   force =    -0.00000000    0.00008554  -32.57022883
     atom    3 type  1   force =     0.00008554   -0.00000000  -32.57022883
     atom    4 type  1   force =     0.00008770    0.00008770   32.57021078
     atom    5 type  1   force =    -0.00000000    0.00005005   32.57021525
     atom    6 type  1   force =    -0.00000000    0.00001457  -32.57022883
     atom    7 type  1   force =     0.00009089    0.00005005  -32.57025833
     atom    8 type  1   force =     0.00008770    0.00001240   32.57021078
     atom    9 type  1   force =     0.00005005   -0.00000000   32.57021525
     atom   10 type  1   force =     0.00005005    0.00009089  -32.57025833
     atom   11 type  1   force =     0.00001457   -0.00000000  -32.57022883
     atom   12 type  1   force =     0.00001240    0.00008770   32.57021078
     atom   13 type  1   force =     0.00005005    0.00005005   32.57023606
     atom   14 type  1   force =     0.00005005    0.00000922  -32.57025833
     atom   15 type  1   force =     0.00000922    0.00005005  -32.57025833
     atom   16 type  1   force =     0.00001240    0.00001240   32.57021078
     The core correction contribution to forces
     atom    1 type  1   force =     0.00000001    0.00000001    0.02639280
     atom    2 type  1   force =    -0.00000000    0.00001492   -0.02635738
     atom    3 type  1   force =     0.00001492   -0.00000000   -0.02635738
     atom    4 type  1   force =     0.00001492    0.00001492    0.02631518
     atom    5 type  1   force =     0.00000000    0.00001504    0.02639475
     atom    6 type  1   force =    -0.00000000    0.00001518   -0.02635739
     atom    7 type  1   force =     0.00001523    0.00001504   -0.02636025
     atom    8 type  1   force =     0.00001492    0.00001518    0.02631518
     atom    9 type  1   force =     0.00001504    0.00000000    0.02639475
     atom   10 type  1   force =     0.00001504    0.00001523   -0.02636025
     atom   11 type  1   force =     0.00001518   -0.00000000   -0.02635739
     atom   12 type  1   force =     0.00001518    0.00001492    0.02631518
     atom   13 type  1   force =     0.00001504    0.00001504    0.02639482
     atom   14 type  1   force =     0.00001504    0.00001486   -0.02636026
     atom   15 type  1   force =     0.00001486    0.00001504   -0.02636026
     atom   16 type  1   force =     0.00001518    0.00001518    0.02631518
     The Hubbard contrib.    to forces
     atom    1 type  1   force =     0.00000000    0.00000000    0.00000000
     atom    2 type  1   force =     0.00000000    0.00000000    0.00000000
     atom    3 type  1   force =     0.00000000    0.00000000    0.00000000
     atom    4 type  1   force =     0.00000000    0.00000000    0.00000000
     atom    5 type  1   force =     0.00000000    0.00000000    0.00000000
     atom    6 type  1   force =     0.00000000    0.00000000    0.00000000
     atom    7 type  1   force =     0.00000000    0.00000000    0.00000000
     atom    8 type  1   force =     0.00000000    0.00000000    0.00000000
     atom    9 type  1   force =     0.00000000    0.00000000    0.00000000
     atom   10 type  1   force =     0.00000000    0.00000000    0.00000000
     atom   11 type  1   force =     0.00000000    0.00000000    0.00000000
     atom   12 type  1   force =     0.00000000    0.00000000    0.00000000
     atom   13 type  1   force =     0.00000000    0.00000000    0.00000000
     atom   14 type  1   force =     0.00000000    0.00000000    0.00000000
     atom   15 type  1   force =     0.00000000    0.00000000    0.00000000
     atom   16 type  1   force =     0.00000000    0.00000000    0.00000000
     The SCF correction term to forces
     atom    1 type  1   force =    -0.00000001   -0.00000001   -0.00052544
     atom    2 type  1   force =    -0.00000001   -0.00000997    0.00057472
     atom    3 type  1   force =    -0.00000997   -0.00000001    0.00057472
     atom    4 type  1   force =    -0.00001166   -0.00001166   -0.00053500
     atom    5 type  1   force =    -0.00000001    0.00000001   -0.00053831
     atom    6 type  1   force =    -0.00000001    0.00001000    0.00057471
     atom    7 type  1   force =    -0.00001608    0.00000001    0.00059314
     atom    8 type  1   force =    -0.00001166    0.00001168   -0.00053500
     atom    9 type  1   force =     0.00000001   -0.00000001   -0.00053831
     atom   10 type  1   force =     0.00000001   -0.00001608    0.00059314
     atom   11 type  1   force =     0.00001000   -0.00000001    0.00057471
     atom   12 type  1   force =     0.00001168   -0.00001166   -0.00053500
     atom   13 type  1   force =     0.00000001    0.00000001   -0.00054286
     atom   14 type  1   force =     0.00000001    0.00001611    0.00059313
     atom   15 type  1   force =     0.00001611    0.00000001    0.00059313
     atom   16 type  1   force =     0.00001168    0.00001168   -0.00053499

     Total force =     0.034242     Total SCF correction =     0.002242


     Computing stress (Cartesian axis) and pressure


     negative rho (up, down):  7.495E-05 0.000E+00
          total   stress  (Ry/bohr**3)                   (kbar)     P=      -28.99
  -0.00027229   0.00000000   0.00000000          -40.06        0.00        0.00
   0.00000000  -0.00027229   0.00000000            0.00      -40.06        0.00
   0.00000000   0.00000000  -0.00004668            0.00        0.00       -6.87

     kinetic stress (kbar)   5912.34      0.00      0.00
                                0.00   5912.34      0.00
                                0.00      0.00   6001.70

     local   stress (kbar) -73177.26     -0.00      0.00
                               -0.00 -73177.26      0.00
                                0.00      0.00  86796.95

     nonloc. stress (kbar)  -3792.54      0.00      0.00
                                0.00  -3792.54      0.00
                                0.00      0.00  -3795.58

     hartree stress (kbar)  39670.86     -0.00     -0.00
                               -0.00  39670.86     -0.00
                               -0.00     -0.00 -37134.26

     exc-cor stress (kbar)  15342.94      0.00     -0.00
                                0.00  15342.94     -0.00
                               -0.00     -0.00  15336.69

     corecor stress (kbar) -17698.54      0.00      0.00
                                0.00 -17698.54      0.00
                                0.00      0.00 -17707.94

     ewald   stress (kbar)  33702.15     -0.00     -0.00
                               -0.00  33702.15     -0.00
                               -0.00     -0.00 -49504.44

     hubbard stress (kbar)      0.00      0.00      0.00
                                0.00      0.00      0.00
                                0.00      0.00      0.00

     DFT-D   stress (kbar)      0.00      0.00      0.00
                                0.00      0.00      0.00
                                0.00      0.00      0.00

     XDM     stress (kbar)      0.00      0.00      0.00
                                0.00      0.00      0.00
                                0.00      0.00      0.00

     dft-nl  stress (kbar)      0.00      0.00      0.00
                                0.00      0.00      0.00
                                0.00      0.00      0.00

     TS-vdW  stress (kbar)      0.00      0.00      0.00
                                0.00      0.00      0.00
                                0.00      0.00      0.00



     BFGS Geometry Optimization
     Energy error            =      0.0E+00
     Gradient error          =      8.6E-03

     number of scf cycles    =   1
     number of bfgs steps    =   0

     energy   new            =   -1839.2006712897 Ry

     new trust radius        =       0.0086009614 bohr
     new conv_thr            =       0.0000010000 Ry


ATOMIC_POSITIONS (angstrom)
Au            0.0000000000        0.0000000000        0.0045502124
Au            0.0000000000        2.0856414940        2.0811130605
Au            2.0856414940        0.0000000000        2.0811130605
Au            2.0856412896        2.0856412896        0.0045095046
Au            0.0000000000        4.1712880000        0.0045500841
Au            0.0000000000        6.2569345060        2.0811130605
Au            2.0856404567        4.1712880000        2.0811149816
Au            2.0856412896        6.2569347104        0.0045095046
Au            4.1712880000        0.0000000000        0.0045500841
Au            4.1712880000        2.0856404567        2.0811149816
Au            6.2569345060        0.0000000000        2.0811130605
Au            6.2569347104        2.0856412896        0.0045095046
Au            4.1712880000        4.1712880000        0.0045514327
Au            4.1712880000        6.2569355433        2.0811149816
Au            6.2569355433        4.1712880000        2.0811149816
Au            6.2569347104        6.2569347104        0.0045095046



     Writing output data file ./surface.save/
     NEW-OLD atomic charge density approx. for the potential

     Check: negative core charge=   -0.000004

     negative rho (up, down):  7.516E-05 0.000E+00

     total cpu time spent up to now is       66.1 secs

     Self-consistent Calculation

     iteration #  1     ecut=    30.00 Ry     beta= 0.30
     Davidson diagonalization with overlap
     ethr =  1.00E-06,  avg # of iterations =  6.3

     Threshold (ethr) on eigenvalues was too large:
     Diagonalizing with lowered threshold

     Davidson diagonalization with overlap
     ethr =  1.51E-08,  avg # of iterations =  7.6

     negative rho (up, down):  7.526E-05 0.000E+00

     total cpu time spent up to now is       83.9 secs

     total energy              =   -1839.20181054 Ry
     estimated scf accuracy    <       0.00001457 Ry

     iteration #  2     ecut=    30.00 Ry     beta= 0.30
     Davidson diagonalization with overlap
     ethr =  8.28E-09,  avg # of iterations =  2.0

     negative rho (up, down):  7.539E-05 0.000E+00

     total cpu time spent up to now is       88.2 secs

     total energy              =   -1839.20181226 Ry
     estimated scf accuracy    <       0.00000363 Ry

     iteration #  3     ecut=    30.00 Ry     beta= 0.30
     Davidson diagonalization with overlap
     ethr =  2.06E-09,  avg # of iterations =  1.3

     negative rho (up, down):  7.547E-05 0.000E+00

     total cpu time spent up to now is       91.8 secs

     total energy              =   -1839.20181230 Ry
     estimated scf accuracy    <       0.00000144 Ry

     iteration #  4     ecut=    30.00 Ry     beta= 0.30
     Davidson diagonalization with overlap
     ethr =  8.19E-10,  avg # of iterations =  2.8

     negative rho (up, down):  7.573E-05 0.000E+00

     total cpu time spent up to now is       96.1 secs

     End of self-consistent calculation

          k = 0.0000 0.0000 0.0000 ( 18535 PWs)   bands (ev):

    -6.7961  -5.0725  -4.9284  -4.9284  -4.9283  -4.9283  -4.8472  -4.8472
    -4.8472  -4.8472  -4.8328  -4.6886  -4.6880  -4.3714  -4.3714  -4.0020
    -4.0020  -4.0019  -4.0019  -3.8746  -3.8177  -3.8177  -3.8177  -3.8177
    -3.4821  -3.4821  -3.4818  -3.4818  -3.3604  -3.3604  -3.3604  -3.3604
    -2.9495  -2.9495  -2.9494  -2.9494  -2.9357  -2.9357  -2.9356  -2.9356
    -2.8665  -2.8664  -2.8661  -2.8661  -2.7889  -2.7889  -2.7889  -2.7889
    -2.7356  -2.7356  -2.5057  -2.2913  -2.2913  -2.2913  -2.2913  -2.1245
    -2.1245  -2.1245  -2.1245  -2.0521  -2.0521  -2.0490  -2.0489  -2.0488
    -2.0488  -1.7937  -1.6646  -1.6640  -1.4914  -1.4914  -1.4911  -1.4910
    -1.4903  -1.4903  -1.4903  -1.4903  -1.4823  -1.4823  -1.4822  -1.4822
    -1.3321  -1.3321  -1.2600  -1.2216  -0.7042  -0.7034   0.8920   0.8921
     0.8922   0.8922   1.0762   1.0762   1.0762   1.0762   2.2002   3.3380
     3.3380   3.3384   3.3384   3.9963   3.9963   5.2019   5.4644   5.4644
     5.4647   5.4647

     occupation numbers 
     1.0000   1.0000   1.0000   1.0000   1.0000   1.0000   1.0000   1.0000
     1.0000   1.0000   1.0000   1.0000   1.0000   1.0000   1.0000   1.0000
     1.0000   1.0000   1.0000   1.0000   1.0000   1.0000   1.0000   1.0000
     1.0000   1.0000   1.0000   1.0000   1.0000   1.0000   1.0000   1.0000
     1.0000   1.0000   1.0000   1.0000   1.0000   1.0000   1.0000   1.0000
     1.0000   1.0000   1.0000   1.0000   1.0000   1.0000   1.0000   1.0000
     1.0000   1.0000   1.0000   1.0000   1.0000   1.0000   1.0000   1.0000
     1.0000   1.0000   1.0000   1.0000   1.0000   1.0000   1.0000   1.0000
     1.0000   1.0000   1.0000   1.0000   1.0000   1.0000   1.0000   1.0000
     1.0000   1.0000   1.0000   1.0000   1.0000   1.0000   1.0000   1.0000
     1.0000   1.0000   1.0000   1.0000   1.0000   1.0000   0.0000   0.0000
     0.0000   0.0000   0.0000   0.0000   0.0000   0.0000   0.0000   0.0000
     0.0000   0.0000   0.0000   0.0000   0.0000   0.0000   0.0000   0.0000
     0.0000   0.0000

          k = 0.0000 0.1250 0.0000 ( 18479 PWs)   bands (ev):

    -6.7559  -5.1509  -5.0397  -4.9586  -4.9586  -4.8692  -4.8692  -4.8523
    -4.8522  -4.8131  -4.6716  -4.6649  -4.6366  -4.3620  -4.3608  -4.0738
    -4.0586  -4.0586  -4.0087  -3.8862  -3.8812  -3.8558  -3.8029  -3.8028
    -3.5993  -3.5360  -3.5359  -3.4146  -3.4146  -3.3528  -3.3528  -3.1108
    -3.0608  -3.0505  -3.0170  -3.0099  -3.0099  -2.8980  -2.8979  -2.8872
    -2.8871  -2.8301  -2.8301  -2.8257  -2.8257  -2.7589  -2.7487  -2.7337
    -2.7334  -2.5606  -2.5055  -2.4296  -2.2239  -2.2239  -2.1609  -2.1010
    -2.1010  -2.0866  -2.0788  -2.0788  -2.0715  -2.0531  -2.0253  -2.0052
    -2.0052  -1.8289  -1.6748  -1.6685  -1.5702  -1.5566  -1.5566  -1.5505
    -1.5505  -1.4874  -1.4734  -1.4668  -1.4668  -1.4054  -1.4054  -1.3598
    -1.3361  -1.2799  -1.2783  -1.1702  -0.7887  -0.7435   0.2895   0.2895
     0.6041   1.1048   1.1049   1.5798   1.5798   1.6073   2.2800   2.7831
     2.7831   3.4469   3.9531   3.9532   4.1149   4.8593   5.2386   5.4867
     5.4870   5.5714

     occupation numbers 
     1.0000   1.0000   1.0000   1.0000   1.0000   1.0000   1.0000   1.0000
     1.0000   1.0000   1.0000   1.0000   1.0000   1.0000   1.0000   1.0000
     1.0000   1.0000   1.0000   1.0000   1.0000   1.0000   1.0000   1.0000
     1.0000   1.0000   1.0000   1.0000   1.0000   1.0000   1.0000   1.0000
     1.0000   1.0000   1.0000   1.0000   1.0000   1.0000   1.0000   1.0000
     1.0000   1.0000   1.0000   1.0000   1.0000   1.0000   1.0000   1.0000
     1.0000   1.0000   1.0000   1.0000   1.0000   1.0000   1.0000   1.0000
     1.0000   1.0000   1.0000   1.0000   1.0000   1.0000   1.0000   1.0000
     1.0000   1.0000   1.0000   1.0000   1.0000   1.0000   1.0000   1.0000
     1.0000   1.0000   1.0000   1.0000   1.0000   1.0000   1.0000   1.0000
     1.0000   1.0000   1.0000   1.0000   1.0000   1.0000   0.4085   0.4080
     0.0000   0.0000   0.0000   0.0000   0.0000   0.0000   0.0000   0.0000
     0.0000   0.0000   0.0000   0.0000   0.0000   0.0000   0.0000   0.0000
     0.0000   0.0000

          k = 0.0000 0.2500 0.0000 ( 18469 PWs)   bands (ev):

    -6.6366  -5.5043  -4.9634  -4.9633  -4.9425  -4.8675  -4.8675  -4.7799
    -4.7798  -4.7545  -4.6259  -4.5961  -4.5272  -4.3313  -4.3296  -4.2127
    -4.1934  -4.1934  -4.0839  -4.0647  -4.0177  -3.8198  -3.7999  -3.7664
    -3.7664  -3.5802  -3.5802  -3.3339  -3.3339  -3.3247  -3.3247  -3.2302
    -3.0806  -3.0514  -3.0514  -3.0500  -2.9605  -2.9605  -2.9592  -2.9591
    -2.9194  -2.9194  -2.8577  -2.8192  -2.7868  -2.6599  -2.6599  -2.5385
    -2.5059  -2.4852  -2.4325  -2.3557  -2.1246  -2.1206  -2.1177  -2.1177
    -2.0657  -2.0657  -2.0581  -2.0377  -2.0377  -1.9425  -1.9425  -1.9359
    -1.9098  -1.8846  -1.7104  -1.6815  -1.6379  -1.6379  -1.6208  -1.6208
    -1.6013  -1.4819  -1.4819  -1.4472  -1.4472  -1.4255  -1.3476  -1.3418
    -1.3050  -1.3050  -1.0229  -1.0191  -0.8589  -0.8551  -0.2237  -0.2237
     0.1838   1.1933   1.1933   2.2036   2.2368   2.2369   2.4173   2.4173
     2.4908   2.5058   4.2888   4.4461   4.5901   4.5901   5.0283   5.3487
     5.5431   5.5434

     occupation numbers 
     1.0000   1.0000   1.0000   1.0000   1.0000   1.0000   1.0000   1.0000
     1.0000   1.0000   1.0000   1.0000   1.0000   1.0000   1.0000   1.0000
     1.0000   1.0000   1.0000   1.0000   1.0000   1.0000   1.0000   1.0000
     1.0000   1.0000   1.0000   1.0000   1.0000   1.0000   1.0000   1.0000
     1.0000   1.0000   1.0000   1.0000   1.0000   1.0000   1.0000   1.0000
     1.0000   1.0000   1.0000   1.0000   1.0000   1.0000   1.0000   1.0000
     1.0000   1.0000   1.0000   1.0000   1.0000   1.0000   1.0000   1.0000
     1.0000   1.0000   1.0000   1.0000   1.0000   1.0000   1.0000   1.0000
     1.0000   1.0000   1.0000   1.0000   1.0000   1.0000   1.0000   1.0000
     1.0000   1.0000   1.0000   1.0000   1.0000   1.0000   1.0000   1.0000
     1.0000   1.0000   1.0000   1.0000   1.0000   1.0000   1.0000   1.0000
     0.9997   0.0000   0.0000   0.0000   0.0000   0.0000   0.0000   0.0000
     0.0000   0.0000   0.0000   0.0000   0.0000   0.0000   0.0000   0.0000
     0.0000   0.0000

          k = 0.0000 0.3750 0.0000 ( 18440 PWs)   bands (ev):

    -6.4416  -5.8585  -4.9484  -4.9484  -4.8921  -4.8921  -4.7855  -4.6614
    -4.6613  -4.6587  -4.5656  -4.4953  -4.4866  -4.3756  -4.3563  -4.3563
    -4.3338  -4.2796  -4.2704  -4.1816  -4.1393  -4.0125  -3.7179  -3.7179
    -3.7074  -3.6216  -3.6215  -3.4197  -3.2686  -3.2686  -3.2440  -3.2440
    -3.0728  -3.0728  -3.0587  -3.0587  -3.0409  -3.0243  -3.0242  -3.0214
    -3.0214  -2.9940  -2.8968  -2.8460  -2.6214  -2.5098  -2.4775  -2.4775
    -2.4769  -2.3958  -2.2030  -2.2006  -2.1910  -2.1910  -2.1089  -2.0818
    -2.0738  -2.0120  -1.9496  -1.9496  -1.8862  -1.8862  -1.8712  -1.8712
    -1.8045  -1.7792  -1.7417  -1.7417  -1.7268  -1.7051  -1.6745  -1.6745
    -1.5944  -1.5414  -1.5414  -1.4979  -1.4419  -1.4182  -1.3661  -1.3499
    -1.3424  -1.1664  -1.1664  -1.0169  -0.8002  -0.6418  -0.6418  -0.2114
    -0.1901   1.3483   1.3483   1.5137   1.8892   1.8892   2.8465   2.8655
     3.2183   3.2183   3.7568   4.3243   4.9369   5.1238   5.1239   5.1631
     5.1631   5.5902

     occupation numbers 
     1.0000   1.0000   1.0000   1.0000   1.0000   1.0000   1.0000   1.0000
     1.0000   1.0000   1.0000   1.0000   1.0000   1.0000   1.0000   1.0000
     1.0000   1.0000   1.0000   1.0000   1.0000   1.0000   1.0000   1.0000
     1.0000   1.0000   1.0000   1.0000   1.0000   1.0000   1.0000   1.0000
     1.0000   1.0000   1.0000   1.0000   1.0000   1.0000   1.0000   1.0000
     1.0000   1.0000   1.0000   1.0000   1.0000   1.0000   1.0000   1.0000
     1.0000   1.0000   1.0000   1.0000   1.0000   1.0000   1.0000   1.0000
     1.0000   1.0000   1.0000   1.0000   1.0000   1.0000   1.0000   1.0000
     1.0000   1.0000   1.0000   1.0000   1.0000   1.0000   1.0000   1.0000
     1.0000   1.0000   1.0000   1.0000   1.0000   1.0000   1.0000   1.0000
     1.0000   1.0000   1.0000   1.0000   1.0000   1.0000   1.0000   1.0000
     1.0000   0.0000   0.0000   0.0000   0.0000   0.0000   0.0000   0.0000
     0.0000   0.0000   0.0000   0.0000   0.0000   0.0000   0.0000   0.0000
     0.0000   0.0000

          k = 0.0000-0.5000 0.0000 ( 18412 PWs)   bands (ev):

    -6.1782  -6.1780  -4.9218  -4.9217  -4.9217  -4.9216  -4.5775  -4.5774
    -4.5298  -4.5297  -4.5176  -4.5175  -4.5175  -4.5175  -4.5146  -4.5145
    -4.3442  -4.3441  -4.2143  -4.2142  -4.1657  -4.1657  -3.6672  -3.6672
    -3.6671  -3.6671  -3.5800  -3.5799  -3.1964  -3.1964  -3.1963  -3.1963
    -3.1113  -3.1112  -3.1112  -3.1112  -3.0652  -3.0652  -3.0651  -3.0651
    -2.9748  -2.9747  -2.9191  -2.9190  -2.5243  -2.5242  -2.3222  -2.3222
    -2.3131  -2.3131  -2.3131  -2.3130  -2.2905  -2.2904  -2.1146  -2.1145
    -1.8842  -1.8841  -1.8486  -1.8486  -1.8485  -1.8485  -1.8152  -1.8151
    -1.8151  -1.8151  -1.7432  -1.7431  -1.7090  -1.7089  -1.6422  -1.6422
    -1.6421  -1.6421  -1.5738  -1.5737  -1.5575  -1.5575  -1.3903  -1.3902
    -1.1957  -1.1957  -0.9555  -0.9554  -0.9554  -0.9554  -0.5194  -0.5193
     0.5977   0.5978   1.5782   1.5782   1.5782   1.5783   3.2711   3.2712
     3.5822   3.5822   4.1401   4.1401   4.1401   4.1402   5.5134   5.5134
     5.5135   5.5135

     occupation numbers 
     1.0000   1.0000   1.0000   1.0000   1.0000   1.0000   1.0000   1.0000
     1.0000   1.0000   1.0000   1.0000   1.0000   1.0000   1.0000   1.0000
     1.0000   1.0000   1.0000   1.0000   1.0000   1.0000   1.0000   1.0000
     1.0000   1.0000   1.0000   1.0000   1.0000   1.0000   1.0000   1.0000
     1.0000   1.0000   1.0000   1.0000   1.0000   1.0000   1.0000   1.0000
     1.0000   1.0000   1.0000   1.0000   1.0000   1.0000   1.0000   1.0000
     1.0000   1.0000   1.0000   1.0000   1.0000   1.0000   1.0000   1.0000
     1.0000   1.0000   1.0000   1.0000   1.0000   1.0000   1.0000   1.0000
     1.0000   1.0000   1.0000   1.0000   1.0000   1.0000   1.0000   1.0000
     1.0000   1.0000   1.0000   1.0000   1.0000   1.0000   1.0000   1.0000
     1.0000   1.0000   1.0000   1.0000   1.0000   1.0000   1.0000   1.0000
     0.0000   0.0000   0.0000   0.0000   0.0000   0.0000   0.0000   0.0000
     0.0000   0.0000   0.0000   0.0000   0.0000   0.0000   0.0000   0.0000
     0.0000   0.0000

          k = 0.1250 0.1250 0.0000 ( 18469 PWs)   bands (ev):

    -6.7165  -5.1497  -5.1497  -5.0306  -5.0129  -4.8628  -4.8627  -4.8473
    -4.7881  -4.6487  -4.6482  -4.6417  -4.6417  -4.3519  -4.3518  -4.1550
    -4.1550  -4.0489  -4.0489  -3.8626  -3.8626  -3.8412  -3.8412  -3.8369
    -3.5953  -3.5889  -3.5889  -3.4608  -3.4605  -3.3580  -3.1154  -3.1154
    -3.0480  -3.0480  -3.0107  -3.0107  -3.0085  -3.0085  -2.9838  -2.9835
    -2.8643  -2.8643  -2.8576  -2.8250  -2.8102  -2.7303  -2.6346  -2.6346
    -2.5911  -2.5911  -2.5056  -2.3927  -2.3927  -2.1858  -2.1288  -2.1288
    -2.0718  -2.0717  -2.0371  -2.0242  -2.0242  -2.0068  -2.0068  -1.9706
    -1.9705  -1.8582  -1.6818  -1.6812  -1.6159  -1.6159  -1.5720  -1.5577
    -1.5573  -1.5093  -1.5093  -1.4301  -1.4301  -1.4227  -1.4064  -1.3068
    -1.2946  -1.2102  -1.2102  -1.1261  -0.8271  -0.8263  -0.3154   0.6270
     0.6270   0.9887   0.9888   1.6434   1.6434   2.0849   2.3569   2.3752
     3.4340   3.4344   3.5484   3.5485   4.4805   4.8890   4.8890   5.2753
     5.6596   6.0778

     occupation numbers 
     1.0000   1.0000   1.0000   1.0000   1.0000   1.0000   1.0000   1.0000
     1.0000   1.0000   1.0000   1.0000   1.0000   1.0000   1.0000   1.0000
     1.0000   1.0000   1.0000   1.0000   1.0000   1.0000   1.0000   1.0000
     1.0000   1.0000   1.0000   1.0000   1.0000   1.0000   1.0000   1.0000
     1.0000   1.0000   1.0000   1.0000   1.0000   1.0000   1.0000   1.0000
     1.0000   1.0000   1.0000   1.0000   1.0000   1.0000   1.0000   1.0000
     1.0000   1.0000   1.0000   1.0000   1.0000   1.0000   1.0000   1.0000
     1.0000   1.0000   1.0000   1.0000   1.0000   1.0000   1.0000   1.0000
     1.0000   1.0000   1.0000   1.0000   1.0000   1.0000   1.0000   1.0000
     1.0000   1.0000   1.0000   1.0000   1.0000   1.0000   1.0000   1.0000
     1.0000   1.0000   1.0000   1.0000   1.0000   1.0000   1.0000   0.0000
     0.0000   0.0000   0.0000   0.0000   0.0000   0.0000   0.0000   0.0000
     0.0000   0.0000   0.0000   0.0000   0.0000   0.0000   0.0000   0.0000
     0.0000   0.0000

          k = 0.1250 0.2500 0.0000 ( 18472 PWs)   bands (ev):

    -6.5993  -5.4937  -5.1463  -5.0806  -4.9357  -4.8331  -4.7944  -4.7437
    -4.7122  -4.6591  -4.6038  -4.5805  -4.5275  -4.3221  -4.3219  -4.3156
    -4.3033  -4.1536  -4.0992  -3.9875  -3.9845  -3.8120  -3.8084  -3.7828
    -3.7804  -3.6400  -3.5543  -3.5054  -3.3735  -3.2901  -3.2176  -3.1119
    -3.1097  -3.0947  -3.0778  -3.0367  -3.0137  -2.9893  -2.9803  -2.8884
    -2.8758  -2.8663  -2.8521  -2.8242  -2.7831  -2.7423  -2.6355  -2.5068
    -2.4711  -2.4367  -2.4326  -2.3795  -2.2916  -2.2813  -2.1231  -2.0751
    -2.0609  -2.0493  -2.0380  -1.9640  -1.9549  -1.9526  -1.9127  -1.8960
    -1.8712  -1.8686  -1.7262  -1.7022  -1.6869  -1.6651  -1.6500  -1.6233
    -1.5870  -1.5513  -1.5099  -1.4573  -1.4079  -1.3934  -1.3647  -1.3500
    -1.2994  -1.0479  -1.0295  -0.9893  -0.9320  -0.8093  -0.7580   0.2033
     0.4610   0.6986   1.6927   1.7529   1.7735   2.2464   2.5752   2.5955
     2.9611   3.0351   3.8054   4.1558   4.3252   4.9349   4.9727   5.3851
     5.4863   5.6377

     occupation numbers 
     1.0000   1.0000   1.0000   1.0000   1.0000   1.0000   1.0000   1.0000
     1.0000   1.0000   1.0000   1.0000   1.0000   1.0000   1.0000   1.0000
     1.0000   1.0000   1.0000   1.0000   1.0000   1.0000   1.0000   1.0000
     1.0000   1.0000   1.0000   1.0000   1.0000   1.0000   1.0000   1.0000
     1.0000   1.0000   1.0000   1.0000   1.0000   1.0000   1.0000   1.0000
     1.0000   1.0000   1.0000   1.0000   1.0000   1.0000   1.0000   1.0000
     1.0000   1.0000   1.0000   1.0000   1.0000   1.0000   1.0000   1.0000
     1.0000   1.0000   1.0000   1.0000   1.0000   1.0000   1.0000   1.0000
     1.0000   1.0000   1.0000   1.0000   1.0000   1.0000   1.0000   1.0000
[...]
     1.0000   1.0000   1.0000   1.0000   1.0000   1.0000   1.0000   1.0000
     1.0000   1.0000   1.0000   1.0000   1.0000   1.0000   1.0000   1.0000
     1.0000   1.0000   1.0000   1.0000   1.0000   1.0000   0.9480   0.9477
     0.0000   0.0000   0.0000   0.0000   0.0000   0.0000   0.0000   0.0000
     0.0000   0.0000   0.0000   0.0000   0.0000   0.0000   0.0000   0.0000
     0.0000   0.0000

          k =-0.5000-0.5000 0.0000 ( 18528 PWs)   bands (ev):

    -5.8825  -5.8822  -5.8822  -5.8820  -4.8593  -4.8592  -4.8592  -4.8592
    -4.5028  -4.5028  -4.5027  -4.5027  -4.5026  -4.5026  -4.5025  -4.5025
    -4.0603  -4.0603  -4.0602  -4.0602  -4.0601  -4.0601  -4.0600  -4.0600
    -3.9668  -3.9667  -3.9667  -3.9666  -3.2472  -3.2471  -3.2471  -3.2469
    -3.2215  -3.2214  -3.2214  -3.2213  -2.8303  -2.8302  -2.8302  -2.8301
    -2.6936  -2.6936  -2.6936  -2.6935  -2.6935  -2.6935  -2.6935  -2.6935
    -2.4999  -2.4998  -2.4998  -2.4997  -2.4962  -2.4961  -2.4961  -2.4961
    -1.9471  -1.9471  -1.9471  -1.9471  -1.9471  -1.9470  -1.9470  -1.9470
    -1.8983  -1.8983  -1.8983  -1.8982  -1.5548  -1.5547  -1.5547  -1.5546
    -1.5057  -1.5057  -1.5057  -1.5057  -1.5057  -1.5057  -1.5057  -1.5056
    -1.1888  -1.1887  -1.1887  -1.1887  -0.0223  -0.0223  -0.0223  -0.0222
     1.8932   1.8932   1.8933   1.8933   1.8934   1.8934   1.8935   1.8935
     4.0929   4.0930   4.0930   4.0931   4.8485   4.8485   4.8485   4.8486
     4.8486   4.8486

     occupation numbers 
     1.0000   1.0000   1.0000   1.0000   1.0000   1.0000   1.0000   1.0000
     1.0000   1.0000   1.0000   1.0000   1.0000   1.0000   1.0000   1.0000
     1.0000   1.0000   1.0000   1.0000   1.0000   1.0000   1.0000   1.0000
     1.0000   1.0000   1.0000   1.0000   1.0000   1.0000   1.0000   1.0000
     1.0000   1.0000   1.0000   1.0000   1.0000   1.0000   1.0000   1.0000
     1.0000   1.0000   1.0000   1.0000   1.0000   1.0000   1.0000   1.0000
     1.0000   1.0000   1.0000   1.0000   1.0000   1.0000   1.0000   1.0000
     1.0000   1.0000   1.0000   1.0000   1.0000   1.0000   1.0000   1.0000
     1.0000   1.0000   1.0000   1.0000   1.0000   1.0000   1.0000   1.0000
     1.0000   1.0000   1.0000   1.0000   1.0000   1.0000   1.0000   1.0000
     1.0000   1.0000   1.0000   1.0000   1.0000   1.0000   1.0000   1.0000
     0.0000   0.0000   0.0000   0.0000   0.0000   0.0000   0.0000   0.0000
     0.0000   0.0000   0.0000   0.0000   0.0000   0.0000   0.0000   0.0000
     0.0000   0.0000

     the Fermi energy is     0.3213 ev

!    total energy              =   -1839.20582700 Ry
     estimated scf accuracy    <          8.2E-09 Ry
     smearing contrib. (-TS)   =      -0.00042282 Ry
     internal energy E=F+TS    =   -1839.20540418 Ry

     The total energy is F=E-TS. E is the sum of the following terms:
     one-electron contribution =   -3636.49487292 Ry
     hartree contribution      =    1945.66818860 Ry
     xc contribution           =    -994.57342761 Ry
     ewald contribution        =     846.19470775 Ry

     convergence has been achieved in   5 iterations

     negative rho (up, down):  7.852E-05 0.000E+00

     Forces acting on atoms (cartesian axes, Ry/au):

     atom    1 type  1   force =     0.00000000    0.00000000   -0.00006252
     atom    2 type  1   force =     0.00000000   -0.00000089    0.00006651
     atom    3 type  1   force =    -0.00000089    0.00000000    0.00006651
     atom    4 type  1   force =    -0.00000086   -0.00000086   -0.00007154
     atom    5 type  1   force =     0.00000000    0.00000000   -0.00007394
     atom    6 type  1   force =     0.00000000    0.00000089    0.00006651
     atom    7 type  1   force =     0.00000015    0.00000000    0.00007804
     atom    8 type  1   force =    -0.00000086    0.00000086   -0.00007154
     atom    9 type  1   force =     0.00000000    0.00000000   -0.00007394
     atom   10 type  1   force =     0.00000000    0.00000015    0.00007804
     atom   11 type  1   force =     0.00000089    0.00000000    0.00006651
     atom   12 type  1   force =     0.00000086   -0.00000086   -0.00007154
     atom   13 type  1   force =     0.00000000    0.00000000   -0.00008167
     atom   14 type  1   force =     0.00000000   -0.00000015    0.00007804
     atom   15 type  1   force =    -0.00000015    0.00000000    0.00007804
     atom   16 type  1   force =     0.00000086    0.00000086   -0.00007154
     The non-local contrib.  to forces
     atom    1 type  1   force =     0.00000000    0.00000000    0.01833765
     atom    2 type  1   force =     0.00000000    0.00000371   -0.01836840
     atom    3 type  1   force =     0.00000371    0.00000000   -0.01836840
     atom    4 type  1   force =     0.00000520    0.00000520    0.01836974
     atom    5 type  1   force =     0.00000000    0.00000000    0.01835796
     atom    6 type  1   force =     0.00000000   -0.00000371   -0.01836840
     atom    7 type  1   force =     0.00000413    0.00000000   -0.01838548
     atom    8 type  1   force =     0.00000520   -0.00000520    0.01836974
     atom    9 type  1   force =     0.00000000    0.00000000    0.01835796
     atom   10 type  1   force =     0.00000000    0.00000413   -0.01838548
     atom   11 type  1   force =    -0.00000371    0.00000000   -0.01836840
     atom   12 type  1   force =    -0.00000520    0.00000520    0.01836974
     atom   13 type  1   force =     0.00000000    0.00000000    0.01837865
     atom   14 type  1   force =     0.00000000   -0.00000413   -0.01838548
     atom   15 type  1   force =    -0.00000413    0.00000000   -0.01838548
     atom   16 type  1   force =    -0.00000520   -0.00000520    0.01836974
     The ionic contribution  to forces
     atom    1 type  1   force =    -0.00003937   -0.00003937  -32.81319006
     atom    2 type  1   force =    -0.00003937   -0.00170187   32.81773106
     atom    3 type  1   force =    -0.00170187   -0.00003937   32.81773106
     atom    4 type  1   force =    -0.00158019   -0.00158019  -32.82220234
     atom    5 type  1   force =    -0.00003938    0.00001507  -32.81416326
     atom    6 type  1   force =    -0.00003937    0.00172617   32.81771364
     atom    7 type  1   force =    -0.00156835    0.00001507   32.81868309
     atom    8 type  1   force =    -0.00158019    0.00160449  -32.82218492
     atom    9 type  1   force =     0.00001507   -0.00003938  -32.81416326
     atom   10 type  1   force =     0.00001507   -0.00156835   32.81868309
     atom   11 type  1   force =     0.00172617   -0.00003937   32.81771364
     atom   12 type  1   force =     0.00160449   -0.00158019  -32.82218492
     atom   13 type  1   force =     0.00001507    0.00001507  -32.81533065
     atom   14 type  1   force =     0.00001507    0.00159266   32.81866567
     atom   15 type  1   force =     0.00159266    0.00001507   32.81866567
     atom   16 type  1   force =     0.00160449    0.00160449  -32.82216750
     The local contribution  to forces
     atom    1 type  1   force =    -0.00000000   -0.00000000   32.76558746
     atom    2 type  1   force =    -0.00000000    0.00172049  -32.77001289
     atom    3 type  1   force =     0.00172049   -0.00000000  -32.77001289
     atom    4 type  1   force =     0.00159861    0.00159861   32.77458279
     atom    5 type  1   force =    -0.00000000    0.00004952   32.76651265
     atom    6 type  1   force =    -0.00000000   -0.00162145  -32.77001290
     atom    7 type  1   force =     0.00158820    0.00004953  -32.77092166
     atom    8 type  1   force =     0.00159861   -0.00149956   32.77458279
     atom    9 type  1   force =     0.00004952   -0.00000000   32.76651265
     atom   10 type  1   force =     0.00004953    0.00158820  -32.77092166
     atom   11 type  1   force =    -0.00162145   -0.00000000  -32.77001290
     atom   12 type  1   force =    -0.00149956    0.00159861   32.77458279
     atom   13 type  1   force =     0.00004952    0.00004952   32.76763701
     atom   14 type  1   force =     0.00004953   -0.00148916  -32.77092166
     atom   15 type  1   force =    -0.00148916    0.00004953  -32.77092166
     atom   16 type  1   force =    -0.00149956   -0.00149956   32.77458280
     The core correction contribution to forces
     atom    1 type  1   force =    -0.00000001   -0.00000001    0.02926630
     atom    2 type  1   force =    -0.00000000    0.00001693   -0.02924898
     atom    3 type  1   force =     0.00001693   -0.00000000   -0.02924898
     atom    4 type  1   force =     0.00001619    0.00001619    0.02921618
     atom    5 type  1   force =    -0.00000001    0.00001504    0.02927097
     atom    6 type  1   force =    -0.00000000    0.00001316   -0.02924898
     atom    7 type  1   force =     0.00001644    0.00001504   -0.02925508
     atom    8 type  1   force =     0.00001619    0.00001391    0.02921618
     atom    9 type  1   force =     0.00001504   -0.00000001    0.02927097
     atom   10 type  1   force =     0.00001504    0.00001644   -0.02925508
     atom   11 type  1   force =     0.00001316   -0.00000000   -0.02924898
     atom   12 type  1   force =     0.00001391    0.00001619    0.02921618
     atom   13 type  1   force =     0.00001504    0.00001504    0.02927549
     atom   14 type  1   force =     0.00001504    0.00001366   -0.02925509
     atom   15 type  1   force =     0.00001366    0.00001504   -0.02925509
     atom   16 type  1   force =     0.00001391    0.00001391    0.02921618
     The Hubbard contrib.    to forces
     atom    1 type  1   force =     0.00000000    0.00000000    0.00000000
     atom    2 type  1   force =     0.00000000    0.00000000    0.00000000
     atom    3 type  1   force =     0.00000000    0.00000000    0.00000000
     atom    4 type  1   force =     0.00000000    0.00000000    0.00000000
     atom    5 type  1   force =     0.00000000    0.00000000    0.00000000
     atom    6 type  1   force =     0.00000000    0.00000000    0.00000000
     atom    7 type  1   force =     0.00000000    0.00000000    0.00000000
     atom    8 type  1   force =     0.00000000    0.00000000    0.00000000
     atom    9 type  1   force =     0.00000000    0.00000000    0.00000000
     atom   10 type  1   force =     0.00000000    0.00000000    0.00000000
     atom   11 type  1   force =     0.00000000    0.00000000    0.00000000
     atom   12 type  1   force =     0.00000000    0.00000000    0.00000000
     atom   13 type  1   force =     0.00000000    0.00000000    0.00000000
     atom   14 type  1   force =     0.00000000    0.00000000    0.00000000
     atom   15 type  1   force =     0.00000000    0.00000000    0.00000000
     atom   16 type  1   force =     0.00000000    0.00000000    0.00000000
     The SCF correction term to forces
     atom    1 type  1   force =    -0.00000000   -0.00000000   -0.00007725
     atom    2 type  1   force =    -0.00000000    0.00003656   -0.00003894
     atom    3 type  1   force =     0.00003656   -0.00000000   -0.00003894
     atom    4 type  1   force =     0.00003606    0.00003606   -0.00006872
     atom    5 type  1   force =    -0.00000000   -0.00000000   -0.00006562
     atom    6 type  1   force =    -0.00000000   -0.00003656   -0.00003894
     atom    7 type  1   force =     0.00003645   -0.00000000   -0.00004750
     atom    8 type  1   force =     0.00003606   -0.00003606   -0.00006871
     atom    9 type  1   force =    -0.00000000   -0.00000000   -0.00006562
     atom   10 type  1   force =    -0.00000000    0.00003645   -0.00004750
     atom   11 type  1   force =    -0.00003656   -0.00000000   -0.00003894
     atom   12 type  1   force =    -0.00003606    0.00003606   -0.00006871
     atom   13 type  1   force =    -0.00000000   -0.00000000   -0.00005555
     atom   14 type  1   force =    -0.00000000   -0.00003645   -0.00004750
     atom   15 type  1   force =    -0.00003645   -0.00000000   -0.00004750
     atom   16 type  1   force =    -0.00003606   -0.00003606   -0.00006871

     Total force =     0.000290     Total SCF correction =     0.000270
     SCF correction compared to forces is large: reduce conv_thr to get better values


     Computing stress (Cartesian axis) and pressure


     negative rho (up, down):  7.852E-05 0.000E+00
          total   stress  (Ry/bohr**3)                   (kbar)     P=      -21.86
  -0.00022161   0.00000000   0.00000000          -32.60        0.00        0.00
   0.00000000  -0.00022161   0.00000000            0.00      -32.60        0.00
   0.00000000   0.00000000  -0.00000256            0.00        0.00       -0.38

     kinetic stress (kbar)   5916.16      0.00      0.00
                                0.00   5916.16      0.00
                                0.00      0.00   5999.17

     local   stress (kbar) -74921.56     -0.00     -0.00
                               -0.00 -74921.56     -0.00
                               -0.00     -0.00  88692.94

     nonloc. stress (kbar)  -3786.77      0.00      0.00
                                0.00  -3786.77      0.00
                                0.00      0.00  -3791.23

     hartree stress (kbar)  40510.74     -0.00      0.00
                               -0.00  40510.74      0.00
                                0.00      0.00 -38019.38

     exc-cor stress (kbar)  15341.97      0.00      0.00
                                0.00  15341.97      0.00
                                0.00      0.00  15335.60

     corecor stress (kbar) -17699.14      0.00      0.00
                                0.00 -17699.14      0.00
                                0.00      0.00 -17707.64

     ewald   stress (kbar)  34605.99     -0.00      0.00
                               -0.00  34605.99      0.00
                                0.00      0.00 -50509.84

     hubbard stress (kbar)      0.00      0.00      0.00
                                0.00      0.00      0.00
                                0.00      0.00      0.00

     DFT-D   stress (kbar)      0.00      0.00      0.00
                                0.00      0.00      0.00
                                0.00      0.00      0.00

     XDM     stress (kbar)      0.00      0.00      0.00
                                0.00      0.00      0.00
                                0.00      0.00      0.00

     dft-nl  stress (kbar)      0.00      0.00      0.00
                                0.00      0.00      0.00
                                0.00      0.00      0.00

     TS-vdW  stress (kbar)      0.00      0.00      0.00
                                0.00      0.00      0.00
                                0.00      0.00      0.00


     Energy error            =      1.2E-05
     Gradient error          =      8.2E-05

     bfgs converged in   7 scf cycles and   6 bfgs steps
     (criteria: energy <  1.0E-04 Ry, force <  1.0E-03 Ry/Bohr)

     End of BFGS Geometry Optimization

     Final energy   =   -1839.2058269983 Ry

     File ./surface.bfgs deleted, as requested
Begin final coordinates

ATOMIC_POSITIONS (angstrom)
Au            0.0000000000        0.0000000000        0.0368772443
Au            0.0000000000        2.0857060237        2.0489498219
Au            2.0857060237        0.0000000000        2.0489498219
Au            2.0856997051        2.0856997051        0.0365087681
Au            0.0000000000        4.1712880000        0.0368860909
Au            0.0000000000        6.2568699763        2.0489498219
Au            2.0857034992        4.1712880000        2.0489472923
Au            2.0856997051        6.2568762949        0.0365087681
Au            4.1712880000        0.0000000000        0.0368860909
Au            4.1712880000        2.0857034992        2.0489472923
Au            6.2568699763        0.0000000000        2.0489498219
Au            6.2568762949        2.0856997051        0.0365087681
Au            4.1712880000        4.1712880000        0.0368790445
Au            4.1712880000        6.2568725008        2.0489472923
Au            6.2568725008        4.1712880000        2.0489472923
Au            6.2568762949        6.2568762949        0.0365087681
End final coordinates



     Writing output data file ./surface.save/

     init_run     :      2.40s CPU      2.55s WALL (       1 calls)
     electrons    :    290.33s CPU    302.20s WALL (       7 calls)
     update_pot   :      1.94s CPU      1.96s WALL (       6 calls)
     forces       :     10.90s CPU     11.49s WALL (       7 calls)
     stress       :     40.43s CPU     41.39s WALL (       7 calls)

     Called by init_run:
     wfcinit      :      1.56s CPU      1.59s WALL (       1 calls)
     wfcinit:atom :      0.02s CPU      0.02s WALL (      15 calls)
     wfcinit:wfcr :      1.42s CPU      1.45s WALL (      15 calls)
     potinit      :      0.13s CPU      0.14s WALL (       1 calls)
     hinit0       :      0.23s CPU      0.26s WALL (       1 calls)

     Called by electrons:
     c_bands      :    244.04s CPU    247.14s WALL (      56 calls)
     sum_band     :     36.40s CPU     41.55s WALL (      56 calls)
     v_of_rho     :      1.92s CPU      1.99s WALL (      56 calls)
     v_h          :      0.15s CPU      0.16s WALL (      56 calls)
     v_xc         :      2.21s CPU      2.29s WALL (      70 calls)
     newd         :      8.77s CPU     12.23s WALL (      56 calls)
     mix_rho      :      0.19s CPU      0.19s WALL (      56 calls)

     Called by c_bands:
     init_us_2    :      5.07s CPU      5.16s WALL (    1905 calls)
     cegterg      :    234.10s CPU    236.98s WALL (     840 calls)

     Called by sum_band:
     sum_band:wei :      0.03s CPU      0.03s WALL (      56 calls)
     sum_band:loo :     24.99s CPU     25.39s WALL (      56 calls)
     sum_band:buf :      0.73s CPU      0.75s WALL (     840 calls)
     sum_band:ini :      2.40s CPU      2.43s WALL (     840 calls)
     sum_band:cal :      9.34s CPU      9.42s WALL (     840 calls)
     sum_band:bec :      0.34s CPU      0.34s WALL (     840 calls)
     addusdens    :     10.79s CPU     15.53s WALL (      56 calls)
     addusd:skk   :      0.14s CPU      0.15s WALL (      56 calls)
     addusd:dgemm :      5.43s CPU      9.96s WALL (      56 calls)
     addusd:qvan2 :      4.24s CPU      4.33s WALL (      56 calls)

     Called by *egterg:
     cdiaghg      :     33.02s CPU     33.28s WALL (    3593 calls)
     cegterg:over :     18.75s CPU     18.91s WALL (    2948 calls)
     cegterg:upda :     10.75s CPU     10.86s WALL (    2948 calls)
     cegterg:last :     25.78s CPU     26.01s WALL (    2229 calls)
     cdiaghg:chol :      1.41s CPU      1.43s WALL (    3593 calls)
     cdiaghg:inve :      1.41s CPU      1.43s WALL (    3593 calls)
     cdiaghg:para :      3.41s CPU      3.44s WALL (    7186 calls)
     h_psi        :    121.70s CPU    123.61s WALL (    3803 calls)
     s_psi        :     18.32s CPU     18.46s WALL (    3803 calls)
     g_psi        :      0.27s CPU      0.28s WALL (    2948 calls)

     Called by h_psi:
     h_psi:calbec :     31.04s CPU     31.32s WALL (    3803 calls)
     vloc_psi     :     70.37s CPU     71.84s WALL (    3803 calls)
     add_vuspsi   :     19.30s CPU     19.46s WALL (    3803 calls)

     General routines
     calbec       :     47.18s CPU     47.59s WALL (    5168 calls)
     fft          :      1.60s CPU      1.65s WALL (     902 calls)
     ffts         :      0.04s CPU      0.04s WALL (     112 calls)
     fftw         :     76.25s CPU     77.83s WALL (  624474 calls)
     interpolate  :      0.11s CPU      0.11s WALL (      56 calls)

     Parallel routines
     fft_scatt_xy :      6.44s CPU      6.58s WALL (  625488 calls)
     fft_scatt_yz :     36.91s CPU     37.73s WALL (  625488 calls)

     PWSCF        :   5m47.70s CPU   6m 4.88s WALL


   This run was terminated on:   0:31:23   6Dec2021            

=------------------------------------------------------------------------------=
   JOB DONE.
=------------------------------------------------------------------------------=
