
     Program PWSCF v.6.7MaX starts on  6Dec2021 at 18:59:57 

     This program is part of the open-source Quantum ESPRESSO suite
     for quantum simulation of materials; please cite
         "P. Giannozzi et al., J. Phys.:Condens. Matter 21 395502 (2009);
         "P. Giannozzi et al., J. Phys.:Condens. Matter 29 465901 (2017);
          URL http://www.quantum-espresso.org", 
     in publications or presentations arising from this work. More details at
     http://www.quantum-espresso.org/quote

     Parallel version (MPI), running on    64 processors

     MPI processes distributed on     1 nodes
     R & G space division:  proc/nbgrp/npool/nimage =      64
     Reading input from au_surface.110.qe.in

     Current dimensions of program PWSCF are:
     Max number of different atomic species (ntypx) = 10
     Max number of k-points (npk) =  40000
     Max angular momentum in pseudopotentials (lmaxx) =  3

     Subspace diagonalization in iterative solution of the eigenvalue problem:
     one sub-group per band group will be used
     scalapack distributed-memory algorithm (size of sub-group:  8*  8 procs)

     Found symmetry operation: I + (  0.0000  0.3333  0.0000)
     This is a supercell, fractional translations are disabled

     Parallelization info
     --------------------
     sticks:   dense  smooth     PW     G-vecs:    dense   smooth      PW
     Min         141      56     15                12615     3190     451
     Max         142      57     16                12618     3197     456
     Sum        9029    3617    979               807431   204309   28963



     bravais-lattice index     =            8
     lattice parameter (alat)  =      23.1203  a.u.
     unit-cell volume          =    9202.6773 (a.u.)^3
     number of atoms/cell      =           18
     number of atomic types    =            1
     number of electrons       =       198.00
     number of Kohn-Sham states=          119
     kinetic-energy cutoff     =      30.0000  Ry
     charge density cutoff     =     300.0000  Ry
     scf convergence threshold =      1.0E-06
     mixing beta               =       0.3000
     number of iterations used =            8  plain     mixing
     energy convergence thresh.=      1.0E-04
     force convergence thresh. =      1.0E-03
     Exchange-correlation= SLA  PW   PBE  PBE
                           (   1   4   3   4   0   0   0)
     nstep                     =           50


     celldm(1)=  23.120327  celldm(2)=   0.707106  celldm(3)=   1.053046
     celldm(4)=   0.000000  celldm(5)=   0.000000  celldm(6)=   0.000000

     crystal axes: (cart. coord. in units of alat)
               a(1) = (   1.000000   0.000000   0.000000 )  
               a(2) = (   0.000000   0.707106   0.000000 )  
               a(3) = (   0.000000   0.000000   1.053046 )  

     reciprocal axes: (cart. coord. in units 2 pi/alat)
               b(1) = (  1.000000  0.000000  0.000000 )  
               b(2) = (  0.000000  1.414214  0.000000 )  
               b(3) = (  0.000000  0.000000  0.949626 )  


     PseudoPot. # 1 for Au read from file:
     /expanse/lustre/projects/csd622/tpascal/nano110/qe/pseudo/au_pbe_v1.uspp.F.UPF
     MD5 check sum: 9d7f43293ad2c663164586bc4b293ffc
     Pseudo is Ultrasoft + core correction, Zval = 11.0
     Generated by new atomic code, or converted to UPF format
     Using radial grid of  985 points,  7 beta functions with: 
                l(1) =   0
                l(2) =   0
                l(3) =   1
                l(4) =   1
                l(5) =   2
                l(6) =   2
                l(7) =   3
     Q(r) pseudized with  6 coefficients,  rinner =    1.900   1.900   1.900
                                                       1.900   1.900   1.900
                                                       1.900

     atomic species   valence    mass     pseudopotential
        Au            11.00   196.96655     Au( 1.00)

      4 Sym. Ops. (no inversion) found


                                    s                        frac. trans.

      isym =  1     identity                                     

 cryst.   s( 1) = (     1          0          0      )
                  (     0          1          0      )
                  (     0          0          1      )

 cart.    s( 1) = (  1.0000000  0.0000000  0.0000000 )
                  (  0.0000000  1.0000000  0.0000000 )
                  (  0.0000000  0.0000000  1.0000000 )


      isym =  2     180 deg rotation - cart. axis [0,0,1]        

 cryst.   s( 2) = (    -1          0          0      )
                  (     0         -1          0      )
                  (     0          0          1      )

 cart.    s( 2) = ( -1.0000000  0.0000000  0.0000000 )
                  (  0.0000000 -1.0000000  0.0000000 )
                  (  0.0000000  0.0000000  1.0000000 )


      isym =  3     inv. 180 deg rotation - cart. axis [0,1,0]   

 cryst.   s( 3) = (     1          0          0      )
                  (     0         -1          0      )
                  (     0          0          1      )

 cart.    s( 3) = (  1.0000000  0.0000000  0.0000000 )
                  (  0.0000000 -1.0000000  0.0000000 )
                  (  0.0000000  0.0000000  1.0000000 )


      isym =  4     inv. 180 deg rotation - cart. axis [1,0,0]   

 cryst.   s( 4) = (    -1          0          0      )
                  (     0          1          0      )
                  (     0          0          1      )

 cart.    s( 4) = ( -1.0000000  0.0000000  0.0000000 )
                  (  0.0000000  1.0000000  0.0000000 )
                  (  0.0000000  0.0000000  1.0000000 )


     point group C_2v (mm2) 
     there are  4 classes
     the character table:

       E     C2    s_v   s_v' 
A_1    1.00  1.00  1.00  1.00
A_2    1.00  1.00 -1.00 -1.00
B_1    1.00 -1.00  1.00 -1.00
B_2    1.00 -1.00 -1.00  1.00

     the symmetry operations in each class and the name of the first element:

     E        1
          identity                                               
     C2       2
          180 deg rotation - cart. axis [0,0,1]                  
     s_v      4
          inv. 180 deg rotation - cart. axis [1,0,0]             
     s_v'     3
          inv. 180 deg rotation - cart. axis [0,1,0]             

   Cartesian axes

     site n.     atom                  positions (alat units)
         1           Au  tau(   1) = (   0.1666667   0.0000000   0.0000000  )
         2           Au  tau(   2) = (   0.0000000   0.1178511   0.1178511  )
         3           Au  tau(   3) = (   0.1666667   0.2357022   0.0000000  )
         4           Au  tau(   4) = (   0.0000000   0.3535534   0.1178511  )
         5           Au  tau(   5) = (   0.1666667   0.4714045   0.0000000  )
         6           Au  tau(   6) = (   0.0000000   0.5892556   0.1178511  )
         7           Au  tau(   7) = (   0.5000000   0.0000000   0.0000000  )
         8           Au  tau(   8) = (   0.3333333   0.1178511   0.1178511  )
         9           Au  tau(   9) = (   0.5000000   0.2357022   0.0000000  )
        10           Au  tau(  10) = (   0.3333333   0.3535534   0.1178511  )
        11           Au  tau(  11) = (   0.5000000   0.4714045   0.0000000  )
        12           Au  tau(  12) = (   0.3333333   0.5892556   0.1178511  )
        13           Au  tau(  13) = (   0.8333333   0.0000000   0.0000000  )
        14           Au  tau(  14) = (   0.6666667   0.1178511   0.1178511  )
        15           Au  tau(  15) = (   0.8333333   0.2357022   0.0000000  )
        16           Au  tau(  16) = (   0.6666667   0.3535534   0.1178511  )
        17           Au  tau(  17) = (   0.8333333   0.4714045   0.0000000  )
        18           Au  tau(  18) = (   0.6666667   0.5892556   0.1178511  )

   Crystallographic axes

     site n.     atom                  positions (cryst. coord.)
         1           Au  tau(   1) = (  0.1666667  0.0000000  0.0000000  )
         2           Au  tau(   2) = (  0.0000000  0.1666667  0.1119145  )
         3           Au  tau(   3) = (  0.1666667  0.3333335  0.0000000  )
         4           Au  tau(   4) = (  0.0000000  0.5000002  0.1119145  )
         5           Au  tau(   5) = (  0.1666667  0.6666670  0.0000000  )
         6           Au  tau(   6) = (  0.0000000  0.8333337  0.1119145  )
         7           Au  tau(   7) = (  0.5000000  0.0000000  0.0000000  )
         8           Au  tau(   8) = (  0.3333333  0.1666667  0.1119145  )
         9           Au  tau(   9) = (  0.5000000  0.3333335  0.0000000  )
        10           Au  tau(  10) = (  0.3333333  0.5000002  0.1119145  )
        11           Au  tau(  11) = (  0.5000000  0.6666670  0.0000000  )
        12           Au  tau(  12) = (  0.3333333  0.8333337  0.1119145  )
        13           Au  tau(  13) = (  0.8333333  0.0000000  0.0000000  )
        14           Au  tau(  14) = (  0.6666667  0.1666667  0.1119145  )
        15           Au  tau(  15) = (  0.8333333  0.3333335  0.0000000  )
        16           Au  tau(  16) = (  0.6666667  0.5000002  0.1119145  )
        17           Au  tau(  17) = (  0.8333333  0.6666670  0.0000000  )
        18           Au  tau(  18) = (  0.6666667  0.8333337  0.1119145  )

     number of k points=     9  Gaussian smearing, width (Ry)=  0.0030
                       cart. coord. in units 2pi/alat
        k(    1) = (   0.0000000   0.0000000   0.0000000), wk =   0.1250000
        k(    2) = (   0.0000000   0.3535536   0.0000000), wk =   0.2500000
        k(    3) = (   0.0000000  -0.7071072   0.0000000), wk =   0.1250000
        k(    4) = (   0.2500000   0.0000000   0.0000000), wk =   0.2500000
        k(    5) = (   0.2500000   0.3535536   0.0000000), wk =   0.5000000
        k(    6) = (   0.2500000  -0.7071072   0.0000000), wk =   0.2500000
        k(    7) = (  -0.5000000   0.0000000   0.0000000), wk =   0.1250000
        k(    8) = (  -0.5000000   0.3535536   0.0000000), wk =   0.2500000
        k(    9) = (  -0.5000000  -0.7071072   0.0000000), wk =   0.1250000

                       cryst. coord.
        k(    1) = (   0.0000000   0.0000000   0.0000000), wk =   0.1250000
        k(    2) = (   0.0000000   0.2500000   0.0000000), wk =   0.2500000
        k(    3) = (   0.0000000  -0.5000000   0.0000000), wk =   0.1250000
        k(    4) = (   0.2500000   0.0000000   0.0000000), wk =   0.2500000
        k(    5) = (   0.2500000   0.2500000   0.0000000), wk =   0.5000000
        k(    6) = (   0.2500000  -0.5000000   0.0000000), wk =   0.2500000
        k(    7) = (  -0.5000000   0.0000000   0.0000000), wk =   0.1250000
        k(    8) = (  -0.5000000   0.2500000   0.0000000), wk =   0.2500000
        k(    9) = (  -0.5000000  -0.5000000   0.0000000), wk =   0.1250000

     Dense  grid:   807431 G-vectors     FFT dimensions: ( 128,  96, 135)

     Smooth grid:   204309 G-vectors     FFT dimensions: (  81,  60,  90)

     Dynamical RAM for                 wfc:       0.72 MB

     Dynamical RAM for     wfc (w. buffer):       7.25 MB

     Dynamical RAM for           str. fact:       0.19 MB

     Dynamical RAM for           local pot:       0.00 MB

     Dynamical RAM for          nlocal pot:       2.74 MB

     Dynamical RAM for                qrad:       2.60 MB

     Dynamical RAM for          rho,v,vnew:       1.42 MB

     Dynamical RAM for               rhoin:       0.47 MB

     Dynamical RAM for            rho*nmix:       3.08 MB

     Dynamical RAM for           G-vectors:       0.75 MB

     Dynamical RAM for          h,s,v(r/c):       0.04 MB

     Dynamical RAM for          <psi|beta>:       0.82 MB

     Dynamical RAM for                 psi:       1.45 MB

     Dynamical RAM for                hpsi:       1.45 MB

     Dynamical RAM for                spsi:       1.45 MB

     Dynamical RAM for      wfcinit/wfcrot:       2.57 MB

     Dynamical RAM for           addusdens:      71.23 MB

     Dynamical RAM for          addusforce:      78.01 MB

     Dynamical RAM for         addusstress:      72.97 MB

     Estimated static dynamical RAM per process >      20.29 MB

     Estimated max dynamical RAM per process >      98.29 MB

     Estimated total dynamical RAM >       6.14 GB

     Check: negative core charge=   -0.000004

     Initial potential from superposition of free atoms

     starting charge  197.99780, renormalised to  198.00000

     negative rho (up, down):  2.553E-05 0.000E+00
     Starting wfcs are  162 randomized atomic wfcs

     total cpu time spent up to now is        2.2 secs

     Self-consistent Calculation

     iteration #  1     ecut=    30.00 Ry     beta= 0.30
     Davidson diagonalization with overlap
     ethr =  1.00E-02,  avg # of iterations =  2.0

     Threshold (ethr) on eigenvalues was too large:
     Diagonalizing with lowered threshold

     Davidson diagonalization with overlap
     ethr =  3.26E-04,  avg # of iterations =  2.2

     negative rho (up, down):  2.098E-05 0.000E+00

     total cpu time spent up to now is        8.1 secs

     total energy              =   -2068.80694029 Ry
     estimated scf accuracy    <       0.75578021 Ry

     iteration #  2     ecut=    30.00 Ry     beta= 0.30
     Davidson diagonalization with overlap
     ethr =  3.82E-04,  avg # of iterations =  1.8

     negative rho (up, down):  2.901E-05 0.000E+00

     total cpu time spent up to now is       11.0 secs

     total energy              =   -2068.85183533 Ry
     estimated scf accuracy    <       0.09056182 Ry

     iteration #  3     ecut=    30.00 Ry     beta= 0.30
     Davidson diagonalization with overlap
     ethr =  4.57E-05,  avg # of iterations =  5.4

     negative rho (up, down):  3.837E-05 0.000E+00

     total cpu time spent up to now is       15.5 secs

     total energy              =   -2068.87750034 Ry
     estimated scf accuracy    <       0.01026212 Ry

     iteration #  4     ecut=    30.00 Ry     beta= 0.30
     Davidson diagonalization with overlap
     ethr =  5.18E-06,  avg # of iterations =  5.3

     negative rho (up, down):  5.656E-05 0.000E+00

     total cpu time spent up to now is       19.6 secs

     total energy              =   -2068.87828927 Ry
     estimated scf accuracy    <       0.00380147 Ry

     iteration #  5     ecut=    30.00 Ry     beta= 0.30
     Davidson diagonalization with overlap
     ethr =  1.92E-06,  avg # of iterations =  2.6

     negative rho (up, down):  5.596E-05 0.000E+00

     total cpu time spent up to now is       22.7 secs

     total energy              =   -2068.87847377 Ry
     estimated scf accuracy    <       0.00019890 Ry

     iteration #  6     ecut=    30.00 Ry     beta= 0.30
     Davidson diagonalization with overlap
     ethr =  1.00E-07,  avg # of iterations =  4.0

     negative rho (up, down):  5.722E-05 0.000E+00

     total cpu time spent up to now is       26.9 secs

     total energy              =   -2068.87852362 Ry
     estimated scf accuracy    <       0.00014961 Ry

     iteration #  7     ecut=    30.00 Ry     beta= 0.30
     Davidson diagonalization with overlap
     ethr =  7.56E-08,  avg # of iterations =  1.9

     negative rho (up, down):  5.954E-05 0.000E+00

     total cpu time spent up to now is       29.7 secs

     total energy              =   -2068.87854541 Ry
     estimated scf accuracy    <       0.00000628 Ry

     iteration #  8     ecut=    30.00 Ry     beta= 0.30
     Davidson diagonalization with overlap
     ethr =  3.17E-09,  avg # of iterations =  5.0

     negative rho (up, down):  6.114E-05 0.000E+00

     total cpu time spent up to now is       34.8 secs

     total energy              =   -2068.87854917 Ry
     estimated scf accuracy    <       0.00000295 Ry

     iteration #  9     ecut=    30.00 Ry     beta= 0.30
     Davidson diagonalization with overlap
     ethr =  1.49E-09,  avg # of iterations =  2.0

     negative rho (up, down):  6.542E-05 0.000E+00

     total cpu time spent up to now is       38.2 secs

     End of self-consistent calculation

          k = 0.0000 0.0000 0.0000 ( 25547 PWs)   bands (ev):

    -6.8511  -6.2237  -6.2236  -5.7789  -5.7788  -5.7325  -5.1322  -5.1322
    -4.8549  -4.8549  -4.8490  -4.8490  -4.8490  -4.8490  -4.7171  -4.7170
    -4.7054  -4.7054  -4.7054  -4.7054  -4.6959  -4.6959  -4.5602  -4.5602
    -4.5602  -4.5602  -4.4326  -4.4131  -4.4131  -4.4131  -4.4131  -4.2996
    -4.2996  -4.1882  -3.9314  -3.8376  -3.8375  -3.6777  -3.6777  -3.6777
    -3.6777  -3.5960  -3.5960  -3.5349  -3.5349  -3.3841  -3.3841  -3.3641
    -3.3030  -3.3030  -3.1550  -3.1550  -3.1550  -3.1550  -3.1504  -3.1504
    -3.1288  -3.1288  -3.1068  -3.1068  -3.1020  -3.1020  -3.1019  -3.1019
    -2.8620  -2.8012  -2.8012  -2.8012  -2.8012  -2.7722  -2.6284  -2.5750
    -2.5750  -2.4569  -2.4569  -2.4569  -2.4569  -2.3965  -2.3965  -2.3729
    -2.3729  -2.3728  -2.3728  -2.3281  -2.3281  -2.3026  -2.1201  -2.1201
    -2.0908  -2.0908  -2.0640  -2.0640  -1.8471  -1.8471  -1.8448  -1.3545
    -1.3545  -1.3545  -1.3545  -0.8679  -0.5366  -0.5366   1.0045   1.0045
     1.2766   1.2766   1.2766   1.2766   1.4487   1.4487   2.9790   3.1765
     3.1765   4.2241   4.2241   4.2242   4.2242   4.8585   4.8591

     occupation numbers 
     1.0000   1.0000   1.0000   1.0000   1.0000   1.0000   1.0000   1.0000
     1.0000   1.0000   1.0000   1.0000   1.0000   1.0000   1.0000   1.0000
     1.0000   1.0000   1.0000   1.0000   1.0000   1.0000   1.0000   1.0000
     1.0000   1.0000   1.0000   1.0000   1.0000   1.0000   1.0000   1.0000
     1.0000   1.0000   1.0000   1.0000   1.0000   1.0000   1.0000   1.0000
     1.0000   1.0000   1.0000   1.0000   1.0000   1.0000   1.0000   1.0000
     1.0000   1.0000   1.0000   1.0000   1.0000   1.0000   1.0000   1.0000
     1.0000   1.0000   1.0000   1.0000   1.0000   1.0000   1.0000   1.0000
     1.0000   1.0000   1.0000   1.0000   1.0000   1.0000   1.0000   1.0000
     1.0000   1.0000   1.0000   1.0000   1.0000   1.0000   1.0000   1.0000
     1.0000   1.0000   1.0000   1.0000   1.0000   1.0000   1.0000   1.0000
     1.0000   1.0000   1.0000   1.0000   1.0000   1.0000   1.0000   1.0000
     1.0000   1.0000   1.0000   1.0000   0.1276   0.1275   0.0000   0.0000
     0.0000   0.0000   0.0000   0.0000   0.0000   0.0000   0.0000   0.0000
     0.0000   0.0000   0.0000   0.0000   0.0000   0.0000   0.0000

          k = 0.0000 0.3536 0.0000 ( 25509 PWs)   bands (ev):

    -6.6722  -6.0364  -6.0364  -5.6043  -5.6043  -5.5689  -5.5373  -5.0536
    -4.9926  -4.9926  -4.9799  -4.9312  -4.9312  -4.9258  -4.9258  -4.8990
    -4.8944  -4.7923  -4.6294  -4.6294  -4.5889  -4.5889  -4.5736  -4.5736
    -4.4971  -4.4346  -4.4346  -4.4188  -4.3775  -4.3460  -4.3460  -4.2703
    -4.2703  -4.2167  -4.1188  -3.8697  -3.8672  -3.8672  -3.8394  -3.8394
    -3.6388  -3.6388  -3.6185  -3.6185  -3.5895  -3.5117  -3.5117  -3.5115
    -3.5114  -3.4583  -3.3993  -3.3993  -3.2587  -3.2422  -3.2422  -3.1673
    -3.0883  -3.0883  -3.0110  -3.0110  -2.9789  -2.9669  -2.9342  -2.8347
    -2.8346  -2.8082  -2.8081  -2.7962  -2.7962  -2.7556  -2.7533  -2.6948
    -2.6948  -2.6054  -2.4907  -2.4703  -2.4703  -2.4642  -2.4642  -2.3039
    -2.2666  -2.2617  -2.2320  -2.2201  -2.2201  -2.2013  -2.1199  -2.0547
    -2.0547  -2.0240  -2.0239  -2.0127  -2.0127  -1.9480  -1.7772  -1.7772
    -0.9336  -0.6702  -0.3922  -0.3922  -0.1821  -0.1821   0.5022   0.5022
     0.5225   1.3325   1.3325   2.4341   2.4342   2.6836   2.8074   3.1277
     3.1371   3.1371   3.4048   3.4048   3.7254   3.7254   4.2054

     occupation numbers 
     1.0000   1.0000   1.0000   1.0000   1.0000   1.0000   1.0000   1.0000
     1.0000   1.0000   1.0000   1.0000   1.0000   1.0000   1.0000   1.0000
     1.0000   1.0000   1.0000   1.0000   1.0000   1.0000   1.0000   1.0000
     1.0000   1.0000   1.0000   1.0000   1.0000   1.0000   1.0000   1.0000
     1.0000   1.0000   1.0000   1.0000   1.0000   1.0000   1.0000   1.0000
     1.0000   1.0000   1.0000   1.0000   1.0000   1.0000   1.0000   1.0000
     1.0000   1.0000   1.0000   1.0000   1.0000   1.0000   1.0000   1.0000
     1.0000   1.0000   1.0000   1.0000   1.0000   1.0000   1.0000   1.0000
     1.0000   1.0000   1.0000   1.0000   1.0000   1.0000   1.0000   1.0000
     1.0000   1.0000   1.0000   1.0000   1.0000   1.0000   1.0000   1.0000
     1.0000   1.0000   1.0000   1.0000   1.0000   1.0000   1.0000   1.0000
     1.0000   1.0000   1.0000   1.0000   1.0000   1.0000   1.0000   1.0000
     1.0000   0.9998   0.0000   0.0000   0.0000   0.0000   0.0000   0.0000
     0.0000   0.0000   0.0000   0.0000   0.0000   0.0000   0.0000   0.0000
     0.0000   0.0000   0.0000   0.0000   0.0000   0.0000   0.0000

          k = 0.0000-0.7071 0.0000 ( 25492 PWs)   bands (ev):

    -6.1761  -6.1758  -5.5224  -5.5224  -5.5221  -5.5221  -5.1366  -5.1362
    -5.1263  -5.1263  -5.1260  -5.1260  -5.0450  -5.0450  -5.0286  -5.0286
    -5.0285  -5.0284  -4.9650  -4.9649  -4.6546  -4.6546  -4.6545  -4.6545
    -4.3786  -4.3784  -4.3161  -4.3158  -4.2317  -4.2317  -4.2315  -4.2315
    -4.1211  -4.1211  -4.1211  -4.1211  -3.9863  -3.9861  -3.7578  -3.7578
    -3.7576  -3.7576  -3.6990  -3.6988  -3.6639  -3.6639  -3.6637  -3.6637
    -3.4743  -3.4743  -3.4741  -3.4741  -3.1836  -3.1834  -3.1565  -3.1565
    -3.1564  -3.1564  -2.9669  -2.9668  -2.9636  -2.9636  -2.9169  -2.9169
    -2.9168  -2.9167  -2.7773  -2.7773  -2.7772  -2.7772  -2.6286  -2.6286
    -2.6285  -2.6285  -2.5361  -2.5361  -2.3694  -2.3692  -2.3155  -2.3155
    -2.3154  -2.3154  -2.2289  -2.2289  -2.1804  -2.1804  -2.1567  -2.1565
    -1.9900  -1.9900  -1.9899  -1.9899  -1.9664  -1.9663  -1.9663  -1.9663
    -0.1751  -0.1750  -0.0287  -0.0287  -0.0285  -0.0285   0.8115   0.8116
     1.6149   1.6149   1.6149   1.6149   2.1220   2.1220   2.1221   2.1221
     3.5508   3.5509   4.0156   4.0157   4.0162   4.1593   4.1599

     occupation numbers 
     1.0000   1.0000   1.0000   1.0000   1.0000   1.0000   1.0000   1.0000
     1.0000   1.0000   1.0000   1.0000   1.0000   1.0000   1.0000   1.0000
     1.0000   1.0000   1.0000   1.0000   1.0000   1.0000   1.0000   1.0000
     1.0000   1.0000   1.0000   1.0000   1.0000   1.0000   1.0000   1.0000
     1.0000   1.0000   1.0000   1.0000   1.0000   1.0000   1.0000   1.0000
     1.0000   1.0000   1.0000   1.0000   1.0000   1.0000   1.0000   1.0000
     1.0000   1.0000   1.0000   1.0000   1.0000   1.0000   1.0000   1.0000
     1.0000   1.0000   1.0000   1.0000   1.0000   1.0000   1.0000   1.0000
     1.0000   1.0000   1.0000   1.0000   1.0000   1.0000   1.0000   1.0000
     1.0000   1.0000   1.0000   1.0000   1.0000   1.0000   1.0000   1.0000
     1.0000   1.0000   1.0000   1.0000   1.0000   1.0000   1.0000   1.0000
     1.0000   1.0000   1.0000   1.0000   1.0000   1.0000   1.0000   1.0000
     0.0000   0.0000   0.0000   0.0000   0.0000   0.0000   0.0000   0.0000
     0.0000   0.0000   0.0000   0.0000   0.0000   0.0000   0.0000   0.0000
     0.0000   0.0000   0.0000   0.0000   0.0000   0.0000   0.0000

          k = 0.2500 0.0000 0.0000 ( 25556 PWs)   bands (ev):

    -6.8001  -6.4479  -6.0344  -5.8264  -5.7502  -5.7325  -5.0987  -5.0986
    -4.9158  -4.9158  -4.8200  -4.8200  -4.7963  -4.7963  -4.7148  -4.7147
    -4.7141  -4.7141  -4.7112  -4.7112  -4.6997  -4.6997  -4.6560  -4.6560
    -4.5429  -4.5429  -4.4600  -4.4600  -4.4599  -4.4178  -4.3657  -4.3657
    -4.1376  -4.1112  -3.9324  -3.8962  -3.8384  -3.7718  -3.6571  -3.6571
    -3.5842  -3.5842  -3.5489  -3.5489  -3.4510  -3.3914  -3.3701  -3.3591
    -3.3540  -3.2634  -3.2634  -3.2215  -3.1639  -3.1271  -3.1271  -3.1240
    -3.1240  -3.1160  -3.1160  -3.0837  -3.0837  -3.0606  -3.0606  -3.0319
    -2.9047  -2.9047  -2.8841  -2.8577  -2.7262  -2.7262  -2.6011  -2.6011
    -2.5703  -2.4828  -2.4828  -2.4531  -2.4453  -2.4453  -2.4179  -2.4179
    -2.3419  -2.3419  -2.2877  -2.2877  -2.2819  -2.2399  -2.1647  -2.1647
    -2.1480  -2.0376  -2.0376  -1.9857  -1.8747  -1.8420  -1.8361  -1.7300
    -1.7300  -1.1928  -0.8094  -0.8094  -0.8059  -0.4245   0.6246   0.6246
     1.2986   1.4918   1.4919   1.5459   1.5875   1.5875   2.6307   3.0258
     3.2839   3.7881   4.3392   4.3393   4.6751   4.6751   4.7341

     occupation numbers 
     1.0000   1.0000   1.0000   1.0000   1.0000   1.0000   1.0000   1.0000
     1.0000   1.0000   1.0000   1.0000   1.0000   1.0000   1.0000   1.0000
     1.0000   1.0000   1.0000   1.0000   1.0000   1.0000   1.0000   1.0000
     1.0000   1.0000   1.0000   1.0000   1.0000   1.0000   1.0000   1.0000
     1.0000   1.0000   1.0000   1.0000   1.0000   1.0000   1.0000   1.0000
     1.0000   1.0000   1.0000   1.0000   1.0000   1.0000   1.0000   1.0000
     1.0000   1.0000   1.0000   1.0000   1.0000   1.0000   1.0000   1.0000
     1.0000   1.0000   1.0000   1.0000   1.0000   1.0000   1.0000   1.0000
     1.0000   1.0000   1.0000   1.0000   1.0000   1.0000   1.0000   1.0000
     1.0000   1.0000   1.0000   1.0000   1.0000   1.0000   1.0000   1.0000
     1.0000   1.0000   1.0000   1.0000   1.0000   1.0000   1.0000   1.0000
     1.0000   1.0000   1.0000   1.0000   1.0000   1.0000   1.0000   1.0000
     1.0000   1.0000   1.0000   1.0000   1.0000   0.0000   0.0000   0.0000
     0.0000   0.0000   0.0000   0.0000   0.0000   0.0000   0.0000   0.0000
     0.0000   0.0000   0.0000   0.0000   0.0000   0.0000   0.0000

          k = 0.2500 0.3536 0.0000 ( 25520 PWs)   bands (ev):

    -6.6204  -6.2632  -5.8476  -5.6481  -5.5785  -5.5673  -5.4878  -5.1470
    -5.0327  -4.9962  -4.9779  -4.9541  -4.9369  -4.9215  -4.8957  -4.8872
    -4.7561  -4.7545  -4.7513  -4.6998  -4.6096  -4.5797  -4.5335  -4.5060
    -4.4964  -4.4655  -4.4483  -4.4334  -4.4086  -4.3967  -4.3887  -4.3144
    -4.1377  -4.1030  -4.0986  -3.9653  -3.9050  -3.8808  -3.8357  -3.8045
    -3.6372  -3.6335  -3.6037  -3.5923  -3.5423  -3.5305  -3.5281  -3.4871
    -3.4580  -3.4419  -3.3549  -3.3545  -3.2900  -3.2843  -3.1949  -3.1694
    -3.1484  -3.0783  -3.0580  -3.0003  -2.9720  -2.9654  -2.9477  -2.9429
    -2.9292  -2.8660  -2.7903  -2.7731  -2.7518  -2.7486  -2.6889  -2.6541
    -2.6081  -2.5630  -2.5345  -2.5277  -2.5080  -2.4113  -2.3525  -2.3195
    -2.2870  -2.2752  -2.2734  -2.2434  -2.1745  -2.1433  -2.1409  -2.1293
    -2.0858  -2.0646  -2.0210  -2.0114  -1.9887  -1.9532  -1.9011  -1.3622
    -0.9938  -0.8897  -0.6084  -0.5385  -0.2608  -0.1010   0.3351   0.5731
     0.7505   1.5911   1.7489   1.8452   2.7295   2.7976   2.8782   2.8799
     3.1777   3.2984   3.3770   3.4714   3.5735   4.0527   4.1716

     occupation numbers 
     1.0000   1.0000   1.0000   1.0000   1.0000   1.0000   1.0000   1.0000
     1.0000   1.0000   1.0000   1.0000   1.0000   1.0000   1.0000   1.0000
     1.0000   1.0000   1.0000   1.0000   1.0000   1.0000   1.0000   1.0000
     1.0000   1.0000   1.0000   1.0000   1.0000   1.0000   1.0000   1.0000
     1.0000   1.0000   1.0000   1.0000   1.0000   1.0000   1.0000   1.0000
     1.0000   1.0000   1.0000   1.0000   1.0000   1.0000   1.0000   1.0000
     1.0000   1.0000   1.0000   1.0000   1.0000   1.0000   1.0000   1.0000
     1.0000   1.0000   1.0000   1.0000   1.0000   1.0000   1.0000   1.0000
     1.0000   1.0000   1.0000   1.0000   1.0000   1.0000   1.0000   1.0000
     1.0000   1.0000   1.0000   1.0000   1.0000   1.0000   1.0000   1.0000
     1.0000   1.0000   1.0000   1.0000   1.0000   1.0000   1.0000   1.0000
     1.0000   1.0000   1.0000   1.0000   1.0000   1.0000   1.0000   1.0000
     1.0000   1.0000   0.9116   0.1420   0.0000   0.0000   0.0000   0.0000
     0.0000   0.0000   0.0000   0.0000   0.0000   0.0000   0.0000   0.0000
     0.0000   0.0000   0.0000   0.0000   0.0000   0.0000   0.0000

          k = 0.2500-0.7071 0.0000 ( 25554 PWs)   bands (ev):

    -6.1230  -6.1228  -5.7553  -5.7550  -5.3353  -5.3350  -5.1609  -5.1605
    -5.1266  -5.1262  -5.1078  -5.1074  -5.0308  -5.0307  -5.0268  -5.0268
    -5.0220  -5.0219  -4.9566  -4.9565  -4.7761  -4.7760  -4.5681  -4.5681
    -4.4351  -4.4348  -4.3733  -4.3731  -4.2163  -4.2161  -4.1126  -4.1126
    -4.0803  -4.0802  -4.0769  -4.0769  -4.0107  -4.0106  -3.9051  -3.9049
    -3.7188  -3.7187  -3.6949  -3.6947  -3.6799  -3.6797  -3.6731  -3.6729
    -3.4448  -3.4448  -3.3782  -3.3780  -3.2078  -3.2076  -3.1389  -3.1388
    -3.1115  -3.1114  -3.1017  -3.1016  -2.9863  -2.9861  -2.9314  -2.9313
    -2.9138  -2.9137  -2.7975  -2.7973  -2.6575  -2.6575  -2.6505  -2.6504
    -2.5610  -2.5609  -2.5413  -2.5412  -2.4221  -2.4220  -2.3896  -2.3896
    -2.2559  -2.2557  -2.2071  -2.2070  -2.1815  -2.1814  -2.1708  -2.1706
    -2.1086  -2.1086  -2.0855  -2.0853  -1.9129  -1.9128  -1.6837  -1.6837
    -0.6049  -0.6047  -0.1173  -0.1171   0.1533   0.1535   0.8692   0.8693
     1.2861   1.2861   1.9875   1.9875   2.3257   2.3259   2.5899   2.5900
     3.5379   3.5381   3.6075   3.6077   3.6725   3.6726   3.9798

     occupation numbers 
     1.0000   1.0000   1.0000   1.0000   1.0000   1.0000   1.0000   1.0000
     1.0000   1.0000   1.0000   1.0000   1.0000   1.0000   1.0000   1.0000
     1.0000   1.0000   1.0000   1.0000   1.0000   1.0000   1.0000   1.0000
     1.0000   1.0000   1.0000   1.0000   1.0000   1.0000   1.0000   1.0000
     1.0000   1.0000   1.0000   1.0000   1.0000   1.0000   1.0000   1.0000
     1.0000   1.0000   1.0000   1.0000   1.0000   1.0000   1.0000   1.0000
     1.0000   1.0000   1.0000   1.0000   1.0000   1.0000   1.0000   1.0000
     1.0000   1.0000   1.0000   1.0000   1.0000   1.0000   1.0000   1.0000
     1.0000   1.0000   1.0000   1.0000   1.0000   1.0000   1.0000   1.0000
     1.0000   1.0000   1.0000   1.0000   1.0000   1.0000   1.0000   1.0000
     1.0000   1.0000   1.0000   1.0000   1.0000   1.0000   1.0000   1.0000
     1.0000   1.0000   1.0000   1.0000   1.0000   1.0000   1.0000   1.0000
     0.8904   0.8891   0.0000   0.0000   0.0000   0.0000   0.0000   0.0000
     0.0000   0.0000   0.0000   0.0000   0.0000   0.0000   0.0000   0.0000
     0.0000   0.0000   0.0000   0.0000   0.0000   0.0000   0.0000

          k =-0.5000 0.0000 0.0000 ( 25576 PWs)   bands (ev):

    -6.6561  -6.6560  -5.9050  -5.9049  -5.7361  -5.7361  -5.0121  -5.0120
    -5.0120  -5.0120  -4.7475  -4.7474  -4.7472  -4.7471  -4.7448  -4.7448
    -4.7448  -4.7448  -4.6980  -4.6980  -4.6980  -4.6980  -4.6721  -4.6721
    -4.6721  -4.6721  -4.4712  -4.4712  -4.3923  -4.3923  -4.3920  -4.3920
    -3.9647  -3.9647  -3.9526  -3.9526  -3.9273  -3.9273  -3.5937  -3.5937
    -3.5937  -3.5937  -3.4150  -3.4149  -3.4149  -3.4148  -3.3830  -3.3830
    -3.3700  -3.3699  -3.2989  -3.2989  -3.1302  -3.1302  -3.1302  -3.1302
    -3.0782  -3.0782  -3.0782  -3.0782  -3.0051  -3.0051  -2.9996  -2.9994
    -2.9994  -2.9992  -2.9451  -2.9451  -2.6625  -2.6625  -2.6625  -2.6625
    -2.5013  -2.5013  -2.4826  -2.4825  -2.4824  -2.4824  -2.3762  -2.3762
    -2.3762  -2.3762  -2.2257  -2.2257  -2.2184  -2.2184  -2.2184  -2.2184
    -1.9379  -1.9378  -1.9378  -1.9378  -1.9212  -1.9212  -1.8431  -1.8431
    -1.8368  -1.8368  -0.6330  -0.6330  -0.1263  -0.1262  -0.1262  -0.1262
     1.5829   1.5829   1.5830   1.5830   1.9243   1.9244   2.6375   2.6375
     3.1518   3.1519   4.7958   4.7959   4.7959   4.7961   4.8358

     occupation numbers 
     1.0000   1.0000   1.0000   1.0000   1.0000   1.0000   1.0000   1.0000
     1.0000   1.0000   1.0000   1.0000   1.0000   1.0000   1.0000   1.0000
     1.0000   1.0000   1.0000   1.0000   1.0000   1.0000   1.0000   1.0000
     1.0000   1.0000   1.0000   1.0000   1.0000   1.0000   1.0000   1.0000
     1.0000   1.0000   1.0000   1.0000   1.0000   1.0000   1.0000   1.0000
     1.0000   1.0000   1.0000   1.0000   1.0000   1.0000   1.0000   1.0000
     1.0000   1.0000   1.0000   1.0000   1.0000   1.0000   1.0000   1.0000
     1.0000   1.0000   1.0000   1.0000   1.0000   1.0000   1.0000   1.0000
     1.0000   1.0000   1.0000   1.0000   1.0000   1.0000   1.0000   1.0000
     1.0000   1.0000   1.0000   1.0000   1.0000   1.0000   1.0000   1.0000
     1.0000   1.0000   1.0000   1.0000   1.0000   1.0000   1.0000   1.0000
     1.0000   1.0000   1.0000   1.0000   1.0000   1.0000   1.0000   1.0000
     1.0000   1.0000   0.9861   0.9861   0.0000   0.0000   0.0000   0.0000
     0.0000   0.0000   0.0000   0.0000   0.0000   0.0000   0.0000   0.0000
     0.0000   0.0000   0.0000   0.0000   0.0000   0.0000   0.0000

          k =-0.5000 0.3536 0.0000 ( 25526 PWs)   bands (ev):

    -6.4744  -6.4744  -5.7221  -5.7220  -5.5676  -5.5676  -5.3483  -5.3483
    -5.0014  -5.0014  -4.9562  -4.9561  -4.9242  -4.9242  -4.8556  -4.8556
    -4.8253  -4.8253  -4.6541  -4.6541  -4.6528  -4.6527  -4.5212  -4.5212
    -4.4858  -4.4857  -4.4571  -4.4571  -4.4134  -4.4133  -4.3570  -4.3570
    -4.0450  -4.0450  -3.9810  -3.9810  -3.9343  -3.9342  -3.9021  -3.9021
    -3.5977  -3.5977  -3.5777  -3.5777  -3.5478  -3.5476  -3.4657  -3.4657
    -3.3535  -3.3535  -3.3389  -3.3388  -3.2683  -3.2683  -3.2382  -3.2381
    -3.2260  -3.2260  -3.0607  -3.0607  -2.9331  -2.9330  -2.9328  -2.9328
    -2.8746  -2.8746  -2.8517  -2.8517  -2.7412  -2.7412  -2.5986  -2.5986
    -2.5802  -2.5802  -2.5724  -2.5724  -2.3994  -2.3994  -2.3592  -2.3592
    -2.2869  -2.2869  -2.2016  -2.2015  -2.1965  -2.1964  -2.1302  -2.1302
    -2.1201  -2.1201  -2.0620  -2.0618  -1.9671  -1.9671  -1.5739  -1.5739
    -0.7828  -0.7828  -0.7618  -0.7618  -0.4422  -0.4421   0.6911   0.6912
     0.9994   0.9995   2.1896   2.1897   2.8131   2.8132   2.9043   2.9043
     3.0879   3.0879   3.3145   3.3146   3.8037   3.8037   4.5093

     occupation numbers 
     1.0000   1.0000   1.0000   1.0000   1.0000   1.0000   1.0000   1.0000
     1.0000   1.0000   1.0000   1.0000   1.0000   1.0000   1.0000   1.0000
     1.0000   1.0000   1.0000   1.0000   1.0000   1.0000   1.0000   1.0000
     1.0000   1.0000   1.0000   1.0000   1.0000   1.0000   1.0000   1.0000
     1.0000   1.0000   1.0000   1.0000   1.0000   1.0000   1.0000   1.0000
     1.0000   1.0000   1.0000   1.0000   1.0000   1.0000   1.0000   1.0000
     1.0000   1.0000   1.0000   1.0000   1.0000   1.0000   1.0000   1.0000
     1.0000   1.0000   1.0000   1.0000   1.0000   1.0000   1.0000   1.0000
     1.0000   1.0000   1.0000   1.0000   1.0000   1.0000   1.0000   1.0000
     1.0000   1.0000   1.0000   1.0000   1.0000   1.0000   1.0000   1.0000
     1.0000   1.0000   1.0000   1.0000   1.0000   1.0000   1.0000   1.0000
     1.0000   1.0000   1.0000   1.0000   1.0000   1.0000   1.0000   1.0000
     1.0000   1.0000   1.0000   1.0000   0.0000   0.0000   0.0000   0.0000
     0.0000   0.0000   0.0000   0.0000   0.0000   0.0000   0.0000   0.0000
     0.0000   0.0000   0.0000   0.0000   0.0000   0.0000   0.0000

          k =-0.5000-0.7071 0.0000 ( 25560 PWs)   bands (ev):

    -5.9730  -5.9730  -5.9727  -5.9727  -5.2214  -5.2213  -5.2211  -5.2210
    -5.1095  -5.1094  -5.1091  -5.1091  -5.0309  -5.0308  -5.0148  -5.0147
    -5.0147  -5.0147  -4.8930  -4.8930  -4.8930  -4.8930  -4.5380  -4.5379
    -4.4470  -4.4470  -4.4468  -4.4468  -4.0669  -4.0669  -4.0667  -4.0667
    -4.0649  -4.0649  -4.0649  -4.0648  -4.0234  -4.0234  -4.0234  -4.0234
    -3.7241  -3.7240  -3.7239  -3.7239  -3.6856  -3.6856  -3.6854  -3.6854
    -3.2874  -3.2873  -3.2873  -3.2872  -3.2771  -3.2771  -3.2769  -3.2769
    -3.0737  -3.0737  -3.0413  -3.0412  -3.0411  -3.0411  -3.0209  -3.0207
    -2.8532  -2.8532  -2.8531  -2.8531  -2.5751  -2.5751  -2.5751  -2.5751
    -2.5366  -2.5366  -2.5364  -2.5364  -2.4766  -2.4765  -2.4765  -2.4765
    -2.2070  -2.2070  -2.2069  -2.2069  -2.1705  -2.1705  -2.1704  -2.1704
    -2.1582  -2.1581  -2.1581  -2.1581  -1.8837  -1.8836  -1.2213  -1.2213
    -1.2212  -1.2212   0.0291   0.0291   0.0293   0.0293   1.0331   1.0331
     1.0332   1.0332   2.2121   2.2121   2.8754   2.8755   2.8756   2.8757
     3.3789   3.3790   3.5895   3.5896   3.5897   3.5898   3.7675

     occupation numbers 
     1.0000   1.0000   1.0000   1.0000   1.0000   1.0000   1.0000   1.0000
     1.0000   1.0000   1.0000   1.0000   1.0000   1.0000   1.0000   1.0000
     1.0000   1.0000   1.0000   1.0000   1.0000   1.0000   1.0000   1.0000
     1.0000   1.0000   1.0000   1.0000   1.0000   1.0000   1.0000   1.0000
     1.0000   1.0000   1.0000   1.0000   1.0000   1.0000   1.0000   1.0000
     1.0000   1.0000   1.0000   1.0000   1.0000   1.0000   1.0000   1.0000
     1.0000   1.0000   1.0000   1.0000   1.0000   1.0000   1.0000   1.0000
     1.0000   1.0000   1.0000   1.0000   1.0000   1.0000   1.0000   1.0000
     1.0000   1.0000   1.0000   1.0000   1.0000   1.0000   1.0000   1.0000
     1.0000   1.0000   1.0000   1.0000   1.0000   1.0000   1.0000   1.0000
     1.0000   1.0000   1.0000   1.0000   1.0000   1.0000   1.0000   1.0000
     1.0000   1.0000   1.0000   1.0000   1.0000   1.0000   1.0000   1.0000
     1.0000   1.0000   0.0000   0.0000   0.0000   0.0000   0.0000   0.0000
     0.0000   0.0000   0.0000   0.0000   0.0000   0.0000   0.0000   0.0000
     0.0000   0.0000   0.0000   0.0000   0.0000   0.0000   0.0000

     the Fermi energy is    -0.5695 ev

!    total energy              =   -2068.87854944 Ry
     estimated scf accuracy    <       0.00000093 Ry
     smearing contrib. (-TS)   =      -0.00073809 Ry
     internal energy E=F+TS    =   -2068.87781135 Ry

     The total energy is F=E-TS. E is the sum of the following terms:
     one-electron contribution =   -3141.09996128 Ry
     hartree contribution      =    1708.95987278 Ry
     xc contribution           =   -1118.55206223 Ry
     ewald contribution        =     481.81433938 Ry

     convergence has been achieved in   9 iterations

     negative rho (up, down):  6.542E-05 0.000E+00

     Forces acting on atoms (cartesian axes, Ry/au):

     atom    1 type  1   force =     0.00006292    0.00000000    0.03224231
     atom    2 type  1   force =     0.00000000    0.00008476   -0.03226076
     atom    3 type  1   force =     0.00005975    0.00008220    0.03227326
     atom    4 type  1   force =     0.00000000    0.00000000   -0.03228787
     atom    5 type  1   force =     0.00005975   -0.00008220    0.03227326
     atom    6 type  1   force =     0.00000000   -0.00008476   -0.03226076
     atom    7 type  1   force =     0.00000000    0.00000000    0.03220082
     atom    8 type  1   force =     0.00004194    0.00008128   -0.03222980
     atom    9 type  1   force =     0.00000000    0.00008245    0.03223441
     atom   10 type  1   force =     0.00004119    0.00000000   -0.03225935
     atom   11 type  1   force =     0.00000000   -0.00008245    0.03223441
     atom   12 type  1   force =     0.00004194   -0.00008128   -0.03222980
     atom   13 type  1   force =    -0.00006292    0.00000000    0.03224231
     atom   14 type  1   force =    -0.00004194    0.00008128   -0.03222980
     atom   15 type  1   force =    -0.00005975    0.00008220    0.03227326
     atom   16 type  1   force =    -0.00004119    0.00000000   -0.03225935
     atom   17 type  1   force =    -0.00005975   -0.00008220    0.03227326
     atom   18 type  1   force =    -0.00004194   -0.00008128   -0.03222980
     The non-local contrib.  to forces
     atom    1 type  1   force =     0.00003839    0.00000000   -0.03832518
     atom    2 type  1   force =    -0.00000000    0.00003791    0.03836547
     atom    3 type  1   force =     0.00003794    0.00003742   -0.03831776
     atom    4 type  1   force =     0.00000000    0.00000000    0.03836519
     atom    5 type  1   force =     0.00003794   -0.00003742   -0.03831776
     atom    6 type  1   force =     0.00000000   -0.00003791    0.03836547
     atom    7 type  1   force =     0.00000000    0.00000000   -0.03834938
     atom    8 type  1   force =     0.00001755    0.00003462    0.03836477
     atom    9 type  1   force =     0.00000000    0.00003551   -0.03834375
     atom   10 type  1   force =     0.00001904    0.00000000    0.03836156
     atom   11 type  1   force =    -0.00000000   -0.00003551   -0.03834375
     atom   12 type  1   force =     0.00001755   -0.00003462    0.03836477
     atom   13 type  1   force =    -0.00003839    0.00000000   -0.03832518
     atom   14 type  1   force =    -0.00001755    0.00003462    0.03836477
     atom   15 type  1   force =    -0.00003794    0.00003742   -0.03831776
     atom   16 type  1   force =    -0.00001904    0.00000000    0.03836156
     atom   17 type  1   force =    -0.00003794   -0.00003742   -0.03831776
     atom   18 type  1   force =    -0.00001755   -0.00003462    0.03836477
     The ionic contribution  to forces
     atom    1 type  1   force =     0.00000000    0.00003298  -20.43318710
     atom    2 type  1   force =    -0.00000000    0.00003544   20.43317046
     atom    3 type  1   force =     0.00000000    0.00000649  -20.43317046
     atom    4 type  1   force =    -0.00000000   -0.00000649   20.43317046
     atom    5 type  1   force =     0.00000000   -0.00003544  -20.43317046
     atom    6 type  1   force =    -0.00000000   -0.00003298   20.43318710
     atom    7 type  1   force =    -0.00000000    0.00003298  -20.43318710
     atom    8 type  1   force =    -0.00000000    0.00003544   20.43317046
     atom    9 type  1   force =    -0.00000000    0.00000649  -20.43317046
     atom   10 type  1   force =    -0.00000000   -0.00000649   20.43317046
     atom   11 type  1   force =     0.00000000   -0.00003544  -20.43317046
     atom   12 type  1   force =    -0.00000000   -0.00003298   20.43318710
     atom   13 type  1   force =     0.00000000    0.00003298  -20.43318710
     atom   14 type  1   force =     0.00000000    0.00003544   20.43317046
     atom   15 type  1   force =     0.00000000    0.00000649  -20.43317046
     atom   16 type  1   force =     0.00000000   -0.00000649   20.43317046
     atom   17 type  1   force =     0.00000000   -0.00003544  -20.43317046
     atom   18 type  1   force =    -0.00000000   -0.00003298   20.43318710
     The local contribution  to forces
     atom    1 type  1   force =    -0.00006401   -0.00000000   20.48624201
     atom    2 type  1   force =    -0.00000000   -0.00039901  -20.48656291
     atom    3 type  1   force =    -0.00005763   -0.00038321   20.48616783
     atom    4 type  1   force =    -0.00000000   -0.00004688  -20.48649396
     atom    5 type  1   force =    -0.00005763    0.00028944   20.48616783
     atom    6 type  1   force =    -0.00000000    0.00030525  -20.48656291
     atom    7 type  1   force =     0.00000000   -0.00000000   20.48631760
     atom    8 type  1   force =    -0.00003057   -0.00039388  -20.48654269
     atom    9 type  1   force =     0.00000000   -0.00038647   20.48624252
     atom   10 type  1   force =    -0.00003143   -0.00004688  -20.48647501
     atom   11 type  1   force =     0.00000000    0.00029270   20.48624252
     atom   12 type  1   force =    -0.00003057    0.00030011  -20.48654269
     atom   13 type  1   force =     0.00006401   -0.00000000   20.48624201
     atom   14 type  1   force =     0.00003057   -0.00039388  -20.48654269
     atom   15 type  1   force =     0.00005763   -0.00038321   20.48616783
     atom   16 type  1   force =     0.00003143   -0.00004688  -20.48647501
     atom   17 type  1   force =     0.00005763    0.00028944   20.48616783
     atom   18 type  1   force =     0.00003057    0.00030011  -20.48654269
     The core correction contribution to forces
     atom    1 type  1   force =    -0.00001702    0.00000000    0.01699124
     atom    2 type  1   force =     0.00000000   -0.00001406   -0.01699262
     atom    3 type  1   force =    -0.00001585   -0.00001348    0.01698899
     atom    4 type  1   force =     0.00000000   -0.00001515   -0.01699197
     atom    5 type  1   force =    -0.00001584   -0.00001683    0.01698899
     atom    6 type  1   force =     0.00000000   -0.00001625   -0.01699262
     atom    7 type  1   force =     0.00000000   -0.00000000    0.01702262
     atom    8 type  1   force =    -0.00001846   -0.00001279   -0.01700310
     atom    9 type  1   force =     0.00000000   -0.00001275    0.01701975
     atom   10 type  1   force =    -0.00001775   -0.00001516   -0.01700153
     atom   11 type  1   force =    -0.00000000   -0.00001754    0.01701976
     atom   12 type  1   force =    -0.00001845   -0.00001751   -0.01700309
     atom   13 type  1   force =     0.00001702    0.00000000    0.01699124
     atom   14 type  1   force =     0.00001846   -0.00001279   -0.01700310
     atom   15 type  1   force =     0.00001585   -0.00001348    0.01698899
     atom   16 type  1   force =     0.00001775   -0.00001516   -0.01700153
     atom   17 type  1   force =     0.00001584   -0.00001683    0.01698899
     atom   18 type  1   force =     0.00001845   -0.00001751   -0.01700309
     The Hubbard contrib.    to forces
     atom    1 type  1   force =     0.00000000    0.00000000    0.00000000
     atom    2 type  1   force =     0.00000000    0.00000000    0.00000000
     atom    3 type  1   force =     0.00000000    0.00000000    0.00000000
     atom    4 type  1   force =     0.00000000    0.00000000    0.00000000
     atom    5 type  1   force =     0.00000000    0.00000000    0.00000000
     atom    6 type  1   force =     0.00000000    0.00000000    0.00000000
     atom    7 type  1   force =     0.00000000    0.00000000    0.00000000
     atom    8 type  1   force =     0.00000000    0.00000000    0.00000000
     atom    9 type  1   force =     0.00000000    0.00000000    0.00000000
     atom   10 type  1   force =     0.00000000    0.00000000    0.00000000
     atom   11 type  1   force =     0.00000000    0.00000000    0.00000000
     atom   12 type  1   force =     0.00000000    0.00000000    0.00000000
     atom   13 type  1   force =     0.00000000    0.00000000    0.00000000
     atom   14 type  1   force =     0.00000000    0.00000000    0.00000000
     atom   15 type  1   force =     0.00000000    0.00000000    0.00000000
     atom   16 type  1   force =     0.00000000    0.00000000    0.00000000
     atom   17 type  1   force =     0.00000000    0.00000000    0.00000000
     atom   18 type  1   force =     0.00000000    0.00000000    0.00000000
     The SCF correction term to forces
     atom    1 type  1   force =     0.00010556   -0.00000000    0.00055770
     atom    2 type  1   force =    -0.00000000    0.00036367   -0.00021313
     atom    3 type  1   force =     0.00009528    0.00035847    0.00064103
     atom    4 type  1   force =    -0.00000000    0.00000000   -0.00030123
     atom    5 type  1   force =     0.00009528   -0.00035846    0.00064103
     atom    6 type  1   force =    -0.00000000   -0.00036366   -0.00021313
     atom    7 type  1   force =     0.00000000   -0.00000000    0.00043345
     atom    8 type  1   force =     0.00007341    0.00035710   -0.00019121
     atom    9 type  1   force =     0.00000000    0.00036316    0.00052270
     atom   10 type  1   force =     0.00007133    0.00000000   -0.00027847
     atom   11 type  1   force =    -0.00000000   -0.00036315    0.00052270
     atom   12 type  1   force =     0.00007341   -0.00035709   -0.00019121
     atom   13 type  1   force =    -0.00010556   -0.00000000    0.00055770
     atom   14 type  1   force =    -0.00007341    0.00035710   -0.00019121
     atom   15 type  1   force =    -0.00009528    0.00035847    0.00064103
     atom   16 type  1   force =    -0.00007133    0.00000000   -0.00027847
     atom   17 type  1   force =    -0.00009528   -0.00035846    0.00064103
     atom   18 type  1   force =    -0.00007341   -0.00035709   -0.00019121

     Total force =     0.136824     Total SCF correction =     0.002264


     Computing stress (Cartesian axis) and pressure


     negative rho (up, down):  6.542E-05 0.000E+00
          total   stress  (Ry/bohr**3)                   (kbar)     P=      -20.08
  -0.00010085   0.00000000   0.00000000          -14.84        0.00        0.00
   0.00000000  -0.00022105   0.00000000            0.00      -32.52        0.00
   0.00000000   0.00000000  -0.00008757            0.00        0.00      -12.88

     kinetic stress (kbar)   4851.55      0.00      0.00
                                0.00   4782.88      0.00
                                0.00      0.00   4892.46

     local   stress (kbar) -43542.73     -0.00      0.00
                               -0.00 -46465.94      0.00
                                0.00      0.00  55461.69

     nonloc. stress (kbar)  -3100.31      0.00      0.00
                                0.00  -3091.71      0.00
                                0.00      0.00  -3101.98

     hartree stress (kbar)  24462.35      0.00      0.00
                                0.00  25515.84     -0.00
                                0.00     -0.00 -22660.41

     exc-cor stress (kbar)  12483.42      0.00     -0.00
                                0.00  12487.25     -0.00
                               -0.00     -0.00  12478.39

     corecor stress (kbar) -14405.90      0.00     -0.00
                                0.00 -14398.68     -0.00
                                0.00     -0.00 -14410.21

     ewald   stress (kbar)  19236.78     -0.00     -0.00
                               -0.00  21137.85     -0.00
                               -0.00     -0.00 -32672.81

     hubbard stress (kbar)      0.00      0.00      0.00
                                0.00      0.00      0.00
                                0.00      0.00      0.00

     DFT-D   stress (kbar)      0.00      0.00      0.00
                                0.00      0.00      0.00
                                0.00      0.00      0.00

     XDM     stress (kbar)      0.00      0.00      0.00
                                0.00      0.00      0.00
                                0.00      0.00      0.00

     dft-nl  stress (kbar)      0.00      0.00      0.00
                                0.00      0.00      0.00
                                0.00      0.00      0.00

     TS-vdW  stress (kbar)      0.00      0.00      0.00
                                0.00      0.00      0.00
                                0.00      0.00      0.00



     BFGS Geometry Optimization
     Energy error            =      0.0E+00
     Gradient error          =      3.2E-02

     number of scf cycles    =   1
     number of bfgs steps    =   0

     energy   new            =   -2068.8785494399 Ry

     new trust radius        =       0.0322878746 bohr
     new conv_thr            =       0.0000010000 Ry


ATOMIC_POSITIONS (angstrom)
Au            2.0391582950        0.0000000000        0.0170618950
Au            0.0000000000        1.4419238506        1.4248073425
Au            2.0391566161        2.8838014968        0.0170782728
Au            0.0000000000        4.3256370000        1.4247929926
Au            2.0391566161        5.7674725032        0.0170782728
Au            0.0000000000        7.2093501494        1.4248073425
Au            6.1173750000        0.0000000000        0.0170399396
Au            4.0782721931        1.4419220139        1.4248237239
Au            6.1173750000        2.8838016301        0.0170577140
Au            4.0782717962        4.3256370000        1.4248080891
Au            6.1173750000        5.7674723699        0.0170577140
Au            4.0782721931        7.2093519861        1.4248237239
Au           10.1955917050        0.0000000000        0.0170618950
Au            8.1564778069        1.4419220139        1.4248237239
Au           10.1955933839        2.8838014968        0.0170782728
Au            8.1564782038        4.3256370000        1.4248080891
Au           10.1955933839        5.7674725032        0.0170782728
Au            8.1564778069        7.2093519861        1.4248237239



     Writing output data file ./surface.save/
     NEW-OLD atomic charge density approx. for the potential

     Check: negative core charge=   -0.000004

     negative rho (up, down):  6.604E-05 0.000E+00

     total cpu time spent up to now is       44.0 secs

     Self-consistent Calculation

     iteration #  1     ecut=    30.00 Ry     beta= 0.30
     Davidson diagonalization with overlap
     ethr =  1.00E-06,  avg # of iterations = 10.6

     negative rho (up, down):  6.661E-05 0.000E+00

     total cpu time spent up to now is       54.7 secs

     total energy              =   -2068.89668744 Ry
     estimated scf accuracy    <       0.00022310 Ry

     iteration #  2     ecut=    30.00 Ry     beta= 0.30
     Davidson diagonalization with overlap
     ethr =  1.13E-07,  avg # of iterations =  3.4

     negative rho (up, down):  6.780E-05 0.000E+00

     total cpu time spent up to now is       58.5 secs

     total energy              =   -2068.89672100 Ry
     estimated scf accuracy    <       0.00008670 Ry

     iteration #  3     ecut=    30.00 Ry     beta= 0.30
     Davidson diagonalization with overlap
     ethr =  4.38E-08,  avg # of iterations =  2.0

     negative rho (up, down):  6.912E-05 0.000E+00

     total cpu time spent up to now is       61.5 secs

     total energy              =   -2068.89672370 Ry
     estimated scf accuracy    <       0.00002601 Ry

     iteration #  4     ecut=    30.00 Ry     beta= 0.30
     Davidson diagonalization with overlap
     ethr =  1.31E-08,  avg # of iterations =  2.2

     negative rho (up, down):  6.978E-05 0.000E+00

     total cpu time spent up to now is       64.8 secs

     total energy              =   -2068.89672783 Ry
     estimated scf accuracy    <       0.00000696 Ry

     iteration #  5     ecut=    30.00 Ry     beta= 0.30
     Davidson diagonalization with overlap
     c_bands:  1 eigenvalues not converged
     ethr =  3.52E-09,  avg # of iterations =  5.6

     negative rho (up, down):  7.014E-05 0.000E+00

     total cpu time spent up to now is       68.8 secs

     total energy              =   -2068.89672940 Ry
     estimated scf accuracy    <       0.00000130 Ry

     iteration #  6     ecut=    30.00 Ry     beta= 0.30
     Davidson diagonalization with overlap
     ethr =  6.56E-10,  avg # of iterations =  4.2

     negative rho (up, down):  7.108E-05 0.000E+00

     total cpu time spent up to now is       72.6 secs

     End of self-consistent calculation

          k = 0.0000 0.0000 0.0000 ( 25547 PWs)   bands (ev):

    -6.8941  -6.2561  -6.2561  -5.7992  -5.7992  -5.7599  -5.1749  -5.1749
    -4.8948  -4.8948  -4.8948  -4.8948  -4.8946  -4.8946  -4.7522  -4.7522
    -4.7507  -4.7507  -4.7451  -4.7451  -4.7451  -4.7451  -4.5781  -4.5781
    -4.5781  -4.5781  -4.4335  -4.4185  -4.4185  -4.4185  -4.4185  -4.3365
    -4.3364  -4.1835  -3.9001  -3.8263  -3.8263  -3.6957  -3.6957  -3.6957
    -3.6957  -3.5610  -3.5610  -3.5426  -3.5426  -3.4276  -3.4276  -3.4203
    -3.3385  -3.3385  -3.1805  -3.1805  -3.1805  -3.1805  -3.1676  -3.1675
    -3.1438  -3.1438  -3.1035  -3.1035  -3.1035  -3.1035  -3.0874  -3.0874
    -2.8580  -2.8030  -2.7964  -2.7964  -2.7964  -2.7964  -2.6324  -2.5649
    -2.5649  -2.4328  -2.4328  -2.4328  -2.4328  -2.3763  -2.3763  -2.3540
    -2.3540  -2.3540  -2.3540  -2.3076  -2.2790  -2.2790  -2.1065  -2.1065
    -2.0544  -2.0544  -2.0480  -2.0480  -1.8118  -1.8118  -1.8011  -1.3392
    -1.3392  -1.3392  -1.3392  -0.8247  -0.5098  -0.5098   1.0076   1.0076
     1.3228   1.3228   1.3228   1.3229   1.5173   1.5173   3.0282   3.2297
     3.2298   4.2435   4.2435   4.2435   4.2435   4.4366   4.7183

     occupation numbers 
     1.0000   1.0000   1.0000   1.0000   1.0000   1.0000   1.0000   1.0000
     1.0000   1.0000   1.0000   1.0000   1.0000   1.0000   1.0000   1.0000
     1.0000   1.0000   1.0000   1.0000   1.0000   1.0000   1.0000   1.0000
     1.0000   1.0000   1.0000   1.0000   1.0000   1.0000   1.0000   1.0000
     1.0000   1.0000   1.0000   1.0000   1.0000   1.0000   1.0000   1.0000
     1.0000   1.0000   1.0000   1.0000   1.0000   1.0000   1.0000   1.0000
     1.0000   1.0000   1.0000   1.0000   1.0000   1.0000   1.0000   1.0000
     1.0000   1.0000   1.0000   1.0000   1.0000   1.0000   1.0000   1.0000
     1.0000   1.0000   1.0000   1.0000   1.0000   1.0000   1.0000   1.0000
     1.0000   1.0000   1.0000   1.0000   1.0000   1.0000   1.0000   1.0000
     1.0000   1.0000   1.0000   1.0000   1.0000   1.0000   1.0000   1.0000
     1.0000   1.0000   1.0000   1.0000   1.0000   1.0000   1.0000   1.0000
     1.0000   1.0000   1.0000   1.0000   0.1103   0.1102   0.0000   0.0000
     0.0000   0.0000   0.0000   0.0000   0.0000   0.0000   0.0000   0.0000
     0.0000   0.0000   0.0000   0.0000   0.0000   0.0000   0.0000

          k = 0.0000 0.3536 0.0000 ( 25509 PWs)   bands (ev):

    -6.7159  -6.0699  -6.0699  -5.6252  -5.6252  -5.5978  -5.5849  -5.0916
    -5.0383  -5.0382  -5.0177  -4.9711  -4.9711  -4.9679  -4.9679  -4.9516
    -4.9359  -4.8347  -4.6379  -4.6379  -4.6119  -4.6119  -4.5774  -4.5774
    -4.5200  -4.4734  -4.4734  -4.4361  -4.4217  -4.3843  -4.3843  -4.3083
    -4.3083  -4.2160  -4.1280  -3.8715  -3.8715  -3.8442  -3.8442  -3.8390
    -3.6468  -3.6459  -3.6458  -3.6101  -3.6101  -3.5090  -3.5090  -3.5055
    -3.5055  -3.4572  -3.4117  -3.4117  -3.2522  -3.2522  -3.2362  -3.1594
    -3.1200  -3.1200  -3.0258  -3.0258  -2.9720  -2.9635  -2.9423  -2.8412
    -2.8412  -2.8158  -2.8158  -2.8001  -2.8001  -2.7677  -2.7457  -2.6916
    -2.6916  -2.6317  -2.4665  -2.4552  -2.4552  -2.4431  -2.4431  -2.2546
    -2.2544  -2.2221  -2.2017  -2.2003  -2.2003  -2.1971  -2.0937  -2.0346
    -2.0346  -1.9929  -1.9929  -1.9863  -1.9863  -1.9038  -1.7525  -1.7525
    -0.9220  -0.6243  -0.3612  -0.3612  -0.1799  -0.1799   0.5468   0.5469
     0.5852   1.3396   1.3396   2.4693   2.4693   2.7447   2.8048   3.1563
     3.1563   3.1732   3.4553   3.4554   3.7298   3.7298   4.2350

     occupation numbers 
     1.0000   1.0000   1.0000   1.0000   1.0000   1.0000   1.0000   1.0000
     1.0000   1.0000   1.0000   1.0000   1.0000   1.0000   1.0000   1.0000
     1.0000   1.0000   1.0000   1.0000   1.0000   1.0000   1.0000   1.0000
     1.0000   1.0000   1.0000   1.0000   1.0000   1.0000   1.0000   1.0000
     1.0000   1.0000   1.0000   1.0000   1.0000   1.0000   1.0000   1.0000
     1.0000   1.0000   1.0000   1.0000   1.0000   1.0000   1.0000   1.0000
     1.0000   1.0000   1.0000   1.0000   1.0000   1.0000   1.0000   1.0000
     1.0000   1.0000   1.0000   1.0000   1.0000   1.0000   1.0000   1.0000
     1.0000   1.0000   1.0000   1.0000   1.0000   1.0000   1.0000   1.0000
     1.0000   1.0000   1.0000   1.0000   1.0000   1.0000   1.0000   1.0000
     1.0000   1.0000   1.0000   1.0000   1.0000   1.0000   1.0000   1.0000
     1.0000   1.0000   1.0000   1.0000   1.0000   1.0000   1.0000   1.0000
     1.0000   0.9969   0.0000   0.0000   0.0000   0.0000   0.0000   0.0000
     0.0000   0.0000   0.0000   0.0000   0.0000   0.0000   0.0000   0.0000
     0.0000   0.0000   0.0000   0.0000   0.0000   0.0000   0.0000

          k = 0.0000-0.7071 0.0000 ( 25492 PWs)   bands (ev):

    -6.2221  -6.2218  -5.5593  -5.5592  -5.5589  -5.5589  -5.1718  -5.1714
    -5.1486  -5.1486  -5.1482  -5.1482  -5.0820  -5.0820  -5.0728  -5.0728
    -5.0723  -5.0723  -5.0126  -5.0126  -4.6601  -4.6601  -4.6596  -4.6596
    -4.3852  -4.3850  -4.3259  -4.3257  -4.2743  -4.2743  -4.2740  -4.2740
    -4.1586  -4.1586  -4.1585  -4.1585  -4.0451  -4.0450  -3.7446  -3.7446
    -3.7445  -3.7445  -3.6734  -3.6731  -3.6572  -3.6572  -3.6570  -3.6570
    -3.4720  -3.4720  -3.4720  -3.4720  -3.1688  -3.1688  -3.1638  -3.1638
    -3.1637  -3.1637  -2.9782  -2.9781  -2.9617  -2.9616  -2.9397  -2.9397
    -2.9396  -2.9396  -2.7868  -2.7868  -2.7867  -2.7867  -2.6273  -2.6273
    -2.6272  -2.6272  -2.5212  -2.5212  -2.3839  -2.3838  -2.2876  -2.2876
    -2.2875  -2.2875  -2.2066  -2.2065  -2.1437  -2.1437  -2.1099  -2.1099
    -1.9671  -1.9671  -1.9666  -1.9665  -1.9392  -1.9392  -1.9392  -1.9392
    -0.1218  -0.1217   0.0095   0.0096   0.0096   0.0097   0.8099   0.8099
     1.6108   1.6108   1.6109   1.6109   2.1359   2.1359   2.1360   2.1360
     3.5882   3.5882   4.0597   4.0598   4.0599   4.1933   4.1942

     occupation numbers 
     1.0000   1.0000   1.0000   1.0000   1.0000   1.0000   1.0000   1.0000
     1.0000   1.0000   1.0000   1.0000   1.0000   1.0000   1.0000   1.0000
     1.0000   1.0000   1.0000   1.0000   1.0000   1.0000   1.0000   1.0000
     1.0000   1.0000   1.0000   1.0000   1.0000   1.0000   1.0000   1.0000
     1.0000   1.0000   1.0000   1.0000   1.0000   1.0000   1.0000   1.0000
     1.0000   1.0000   1.0000   1.0000   1.0000   1.0000   1.0000   1.0000
     1.0000   1.0000   1.0000   1.0000   1.0000   1.0000   1.0000   1.0000
     1.0000   1.0000   1.0000   1.0000   1.0000   1.0000   1.0000   1.0000
     1.0000   1.0000   1.0000   1.0000   1.0000   1.0000   1.0000   1.0000
     1.0000   1.0000   1.0000   1.0000   1.0000   1.0000   1.0000   1.0000
     1.0000   1.0000   1.0000   1.0000   1.0000   1.0000   1.0000   1.0000
     1.0000   1.0000   1.0000   1.0000   1.0000   1.0000   1.0000   1.0000
     0.0000   0.0000   0.0000   0.0000   0.0000   0.0000   0.0000   0.0000
     0.0000   0.0000   0.0000   0.0000   0.0000   0.0000   0.0000   0.0000
     0.0000   0.0000   0.0000   0.0000   0.0000   0.0000   0.0000

          k = 0.2500 0.0000 0.0000 ( 25556 PWs)   bands (ev):

    -6.8423  -6.4849  -6.0621  -5.8477  -5.7711  -5.7586  -5.1415  -5.1415
    -4.9624  -4.9624  -4.8617  -4.8617  -4.8382  -4.8381  -4.7587  -4.7587
    -4.7533  -4.7533  -4.7521  -4.7521  -4.7414  -4.7414  -4.6871  -4.6871
    -4.5573  -4.5573  -4.4706  -4.4676  -4.4676  -4.4512  -4.3636  -4.3636
    -4.1719  -4.0975  -3.9031  -3.8778  -3.8456  -3.7389  -3.6646  -3.6646
    -3.6125  -3.6125  -3.5555  -3.5555  -3.4401  -3.4254  -3.4209  -3.3913
    -3.3735  -3.2932  -3.2932  -3.2442  -3.2005  -3.1417  -3.1417  -3.1240
    -3.1240  -3.1048  -3.1048  -3.0991  -3.0991  -3.0640  -3.0640  -3.0397
    -2.9021  -2.9021  -2.8885  -2.8816  -2.7230  -2.7230  -2.5939  -2.5939
    -2.5722  -2.4651  -2.4651  -2.4377  -2.4317  -2.4317  -2.3859  -2.3859
    -2.2953  -2.2953  -2.2859  -2.2570  -2.2570  -2.2242  -2.1445  -2.1272
    -2.1271  -2.0184  -2.0184  -1.9692  -1.8448  -1.7988  -1.7967  -1.7166
    -1.7166  -1.1878  -0.7921  -0.7921  -0.7620  -0.3768   0.6546   0.6546
     1.3298   1.5257   1.5607   1.5607   1.6501   1.6501   2.6812   3.0745
     3.3332   3.7725   4.3705   4.3705   4.6828   4.6828   4.7593

     occupation numbers 
     1.0000   1.0000   1.0000   1.0000   1.0000   1.0000   1.0000   1.0000
     1.0000   1.0000   1.0000   1.0000   1.0000   1.0000   1.0000   1.0000
     1.0000   1.0000   1.0000   1.0000   1.0000   1.0000   1.0000   1.0000
     1.0000   1.0000   1.0000   1.0000   1.0000   1.0000   1.0000   1.0000
     1.0000   1.0000   1.0000   1.0000   1.0000   1.0000   1.0000   1.0000
     1.0000   1.0000   1.0000   1.0000   1.0000   1.0000   1.0000   1.0000
     1.0000   1.0000   1.0000   1.0000   1.0000   1.0000   1.0000   1.0000
     1.0000   1.0000   1.0000   1.0000   1.0000   1.0000   1.0000   1.0000
     1.0000   1.0000   1.0000   1.0000   1.0000   1.0000   1.0000   1.0000
     1.0000   1.0000   1.0000   1.0000   1.0000   1.0000   1.0000   1.0000
     1.0000   1.0000   1.0000   1.0000   1.0000   1.0000   1.0000   1.0000
     1.0000   1.0000   1.0000   1.0000   1.0000   1.0000   1.0000   1.0000
     1.0000   1.0000   1.0000   1.0000   1.0000   0.0000   0.0000   0.0000
     0.0000   0.0000   0.0000   0.0000   0.0000   0.0000   0.0000   0.0000
     0.0000   0.0000   0.0000   0.0000   0.0000   0.0000   0.0000

          k = 0.2500 0.3536 0.0000 ( 25520 PWs)   bands (ev):

    -6.6636  -6.3012  -5.8763  -5.6702  -5.6001  -5.5948  -5.5350  -5.1907
    -5.0738  -5.0459  -5.0197  -4.9966  -4.9767  -4.9672  -4.9424  -4.9221
    -4.7962  -4.7907  -4.7701  -4.7141  -4.6353  -4.5982  -4.5318  -4.5307
    -4.5143  -4.4906  -4.4792  -4.4617  -4.4456  -4.4412  -4.4324  -4.3438
    -4.1369  -4.1273  -4.1058  -3.9657  -3.9040  -3.8564  -3.8418  -3.7755
    -3.6665  -3.6468  -3.6434  -3.6335  -3.5346  -3.5285  -3.5271  -3.4838
    -3.4559  -3.4306  -3.3794  -3.3551  -3.2919  -3.2632  -3.1868  -3.1852
    -3.1533  -3.1088  -3.0738  -3.0061  -2.9949  -2.9717  -2.9496  -2.9409
    -2.9366  -2.8731  -2.7919  -2.7883  -2.7520  -2.7424  -2.6922  -2.6445
    -2.6275  -2.5671  -2.5250  -2.5148  -2.4893  -2.3763  -2.3437  -2.2746
    -2.2719  -2.2476  -2.2343  -2.2336  -2.1534  -2.1260  -2.1233  -2.1007
    -2.0629  -2.0339  -1.9939  -1.9897  -1.9519  -1.9100  -1.8793  -1.3393
    -0.9800  -0.8796  -0.5617  -0.5355  -0.2115  -0.0716   0.3396   0.6364
     0.8107   1.6230   1.7674   1.8309   2.7954   2.8539   2.8717   2.9293
     3.2226   3.3329   3.3741   3.5169   3.5779   4.0413   4.1834

     occupation numbers 
     1.0000   1.0000   1.0000   1.0000   1.0000   1.0000   1.0000   1.0000
     1.0000   1.0000   1.0000   1.0000   1.0000   1.0000   1.0000   1.0000
     1.0000   1.0000   1.0000   1.0000   1.0000   1.0000   1.0000   1.0000
     1.0000   1.0000   1.0000   1.0000   1.0000   1.0000   1.0000   1.0000
     1.0000   1.0000   1.0000   1.0000   1.0000   1.0000   1.0000   1.0000
     1.0000   1.0000   1.0000   1.0000   1.0000   1.0000   1.0000   1.0000
     1.0000   1.0000   1.0000   1.0000   1.0000   1.0000   1.0000   1.0000
     1.0000   1.0000   1.0000   1.0000   1.0000   1.0000   1.0000   1.0000
     1.0000   1.0000   1.0000   1.0000   1.0000   1.0000   1.0000   1.0000
     1.0000   1.0000   1.0000   1.0000   1.0000   1.0000   1.0000   1.0000
     1.0000   1.0000   1.0000   1.0000   1.0000   1.0000   1.0000   1.0000
     1.0000   1.0000   1.0000   1.0000   1.0000   1.0000   1.0000   1.0000
     1.0000   1.0000   0.7168   0.3689   0.0000   0.0000   0.0000   0.0000
     0.0000   0.0000   0.0000   0.0000   0.0000   0.0000   0.0000   0.0000
     0.0000   0.0000   0.0000   0.0000   0.0000   0.0000   0.0000

          k = 0.2500-0.7071 0.0000 ( 25554 PWs)   bands (ev):

    -6.1686  -6.1683  -5.7964  -5.7961  -5.3671  -5.3668  -5.1850  -5.1847
    -5.1595  -5.1592  -5.1306  -5.1303  -5.0718  -5.0718  -5.0701  -5.0701
    -5.0698  -5.0697  -4.9955  -4.9954  -4.7917  -4.7917  -4.5636  -4.5636
    -4.4556  -4.4554  -4.4161  -4.4159  -4.2137  -4.2135  -4.1554  -4.1554
    -4.1147  -4.1145  -4.1089  -4.1088  -4.0662  -4.0662  -3.8871  -3.8870
    -3.7284  -3.7283  -3.6811  -3.6809  -3.6723  -3.6720  -3.6616  -3.6614
    -3.4339  -3.4338  -3.3744  -3.3744  -3.1945  -3.1944  -3.1560  -3.1559
    -3.1172  -3.1171  -3.1101  -3.1101  -2.9805  -2.9804  -2.9452  -2.9451
    -2.9284  -2.9284  -2.8118  -2.8117  -2.6646  -2.6645  -2.6594  -2.6594
    -2.5537  -2.5537  -2.5290  -2.5290  -2.4374  -2.4373  -2.3698  -2.3697
    -2.2206  -2.2206  -2.1837  -2.1837  -2.1468  -2.1468  -2.1256  -2.1255
    -2.0795  -2.0795  -2.0598  -2.0598  -1.8907  -1.8907  -1.6603  -1.6602
    -0.5819  -0.5818  -0.0631  -0.0630   0.2075   0.2076   0.8678   0.8678
     1.2839   1.2839   1.9790   1.9790   2.3593   2.3594   2.5858   2.5859
     3.5845   3.5846   3.6444   3.6444   3.7023   3.7023   4.0167

     occupation numbers 
     1.0000   1.0000   1.0000   1.0000   1.0000   1.0000   1.0000   1.0000
     1.0000   1.0000   1.0000   1.0000   1.0000   1.0000   1.0000   1.0000
     1.0000   1.0000   1.0000   1.0000   1.0000   1.0000   1.0000   1.0000
     1.0000   1.0000   1.0000   1.0000   1.0000   1.0000   1.0000   1.0000
     1.0000   1.0000   1.0000   1.0000   1.0000   1.0000   1.0000   1.0000
     1.0000   1.0000   1.0000   1.0000   1.0000   1.0000   1.0000   1.0000
     1.0000   1.0000   1.0000   1.0000   1.0000   1.0000   1.0000   1.0000
     1.0000   1.0000   1.0000   1.0000   1.0000   1.0000   1.0000   1.0000
     1.0000   1.0000   1.0000   1.0000   1.0000   1.0000   1.0000   1.0000
     1.0000   1.0000   1.0000   1.0000   1.0000   1.0000   1.0000   1.0000
     1.0000   1.0000   1.0000   1.0000   1.0000   1.0000   1.0000   1.0000
     1.0000   1.0000   1.0000   1.0000   1.0000   1.0000   1.0000   1.0000
     0.8984   0.8977   0.0000   0.0000   0.0000   0.0000   0.0000   0.0000
     0.0000   0.0000   0.0000   0.0000   0.0000   0.0000   0.0000   0.0000
     0.0000   0.0000   0.0000   0.0000   0.0000   0.0000   0.0000

          k =-0.5000 0.0000 0.0000 ( 25576 PWs)   bands (ev):

    -6.6966  -6.6961  -5.9289  -5.9288  -5.7597  -5.7591  -5.0562  -5.0562
    -5.0558  -5.0558  -4.7939  -4.7938  -4.7938  -4.7938  -4.7861  -4.7861
    -4.7859  -4.7858  -4.7432  -4.7432  -4.7428  -4.7428  -4.6902  -4.6902
    -4.6902  -4.6902  -4.4954  -4.4953  -4.3923  -4.3923  -4.3921  -4.3921
    -3.9903  -3.9903  -3.9274  -3.9273  -3.9031  -3.9025  -3.5989  -3.5989
    -3.5985  -3.5984  -3.4461  -3.4461  -3.4460  -3.4459  -3.4360  -3.4355
    -3.3555  -3.3554  -3.3292  -3.3292  -3.1202  -3.1202  -3.1196  -3.1196
    -3.0972  -3.0972  -3.0968  -3.0968  -3.0389  -3.0387  -3.0011  -3.0011
    -3.0011  -3.0011  -2.9470  -2.9465  -2.6596  -2.6596  -2.6590  -2.6590
    -2.4948  -2.4946  -2.4686  -2.4686  -2.4685  -2.4685  -2.3363  -2.3362
    -2.3358  -2.3358  -2.2271  -2.2266  -2.1766  -2.1766  -2.1761  -2.1761
    -1.9265  -1.9265  -1.9263  -1.9263  -1.8977  -1.8977  -1.8375  -1.8375
    -1.7951  -1.7946  -0.5870  -0.5866  -0.1049  -0.1049  -0.1049  -0.1049
     1.6511   1.6511   1.6515   1.6515   1.9677   1.9677   2.6188   2.6191
     3.1995   3.1998   4.8312   4.8312   4.8313   4.8313   4.8573

     occupation numbers 
     1.0000   1.0000   1.0000   1.0000   1.0000   1.0000   1.0000   1.0000
     1.0000   1.0000   1.0000   1.0000   1.0000   1.0000   1.0000   1.0000
     1.0000   1.0000   1.0000   1.0000   1.0000   1.0000   1.0000   1.0000
     1.0000   1.0000   1.0000   1.0000   1.0000   1.0000   1.0000   1.0000
     1.0000   1.0000   1.0000   1.0000   1.0000   1.0000   1.0000   1.0000
     1.0000   1.0000   1.0000   1.0000   1.0000   1.0000   1.0000   1.0000
     1.0000   1.0000   1.0000   1.0000   1.0000   1.0000   1.0000   1.0000
     1.0000   1.0000   1.0000   1.0000   1.0000   1.0000   1.0000   1.0000
     1.0000   1.0000   1.0000   1.0000   1.0000   1.0000   1.0000   1.0000
     1.0000   1.0000   1.0000   1.0000   1.0000   1.0000   1.0000   1.0000
     1.0000   1.0000   1.0000   1.0000   1.0000   1.0000   1.0000   1.0000
     1.0000   1.0000   1.0000   1.0000   1.0000   1.0000   1.0000   1.0000
     1.0000   1.0000   0.9263   0.9244   0.0000   0.0000   0.0000   0.0000
     0.0000   0.0000   0.0000   0.0000   0.0000   0.0000   0.0000   0.0000
     0.0000   0.0000   0.0000   0.0000   0.0000   0.0000   0.0000

          k =-0.5000 0.3536 0.0000 ( 25526 PWs)   bands (ev):

    -6.5159  -6.5154  -5.7468  -5.7467  -5.5921  -5.5916  -5.3946  -5.3941
    -5.0510  -5.0509  -4.9958  -4.9958  -4.9733  -4.9730  -4.8864  -4.8863
    -4.8473  -4.8470  -4.6895  -4.6889  -4.6835  -4.6834  -4.5529  -4.5523
    -4.4840  -4.4839  -4.4781  -4.4780  -4.4658  -4.4652  -4.3858  -4.3858
    -4.0483  -4.0478  -3.9592  -3.9592  -3.9571  -3.9571  -3.8905  -3.8901
    -3.6373  -3.6370  -3.5971  -3.5971  -3.5428  -3.5427  -3.4626  -3.4620
    -3.3577  -3.3576  -3.3367  -3.3362  -3.2622  -3.2618  -3.2568  -3.2568
    -3.2360  -3.2360  -3.0598  -3.0593  -2.9399  -2.9398  -2.9384  -2.9381
    -2.8807  -2.8807  -2.8748  -2.8743  -2.7385  -2.7379  -2.5874  -2.5874
    -2.5849  -2.5849  -2.5662  -2.5657  -2.3957  -2.3955  -2.3172  -2.3168
    -2.2530  -2.2526  -2.1883  -2.1879  -2.1837  -2.1837  -2.1041  -2.1039
    -2.0880  -2.0880  -2.0435  -2.0434  -1.9265  -1.9260  -1.5573  -1.5573
    -0.7593  -0.7593  -0.7556  -0.7551  -0.3934  -0.3930   0.7549   0.7553
     1.0090   1.0090   2.2328   2.2328   2.8770   2.8774   2.8898   2.8901
     3.0833   3.0838   3.3584   3.3586   3.8450   3.8450   4.5118

     occupation numbers 
     1.0000   1.0000   1.0000   1.0000   1.0000   1.0000   1.0000   1.0000
     1.0000   1.0000   1.0000   1.0000   1.0000   1.0000   1.0000   1.0000
     1.0000   1.0000   1.0000   1.0000   1.0000   1.0000   1.0000   1.0000
     1.0000   1.0000   1.0000   1.0000   1.0000   1.0000   1.0000   1.0000
     1.0000   1.0000   1.0000   1.0000   1.0000   1.0000   1.0000   1.0000
     1.0000   1.0000   1.0000   1.0000   1.0000   1.0000   1.0000   1.0000
     1.0000   1.0000   1.0000   1.0000   1.0000   1.0000   1.0000   1.0000
     1.0000   1.0000   1.0000   1.0000   1.0000   1.0000   1.0000   1.0000
     1.0000   1.0000   1.0000   1.0000   1.0000   1.0000   1.0000   1.0000
     1.0000   1.0000   1.0000   1.0000   1.0000   1.0000   1.0000   1.0000
     1.0000   1.0000   1.0000   1.0000   1.0000   1.0000   1.0000   1.0000
     1.0000   1.0000   1.0000   1.0000   1.0000   1.0000   1.0000   1.0000
     1.0000   1.0000   1.0000   1.0000   0.0000   0.0000   0.0000   0.0000
     0.0000   0.0000   0.0000   0.0000   0.0000   0.0000   0.0000   0.0000
     0.0000   0.0000   0.0000   0.0000   0.0000   0.0000   0.0000

          k =-0.5000-0.7071 0.0000 ( 25560 PWs)   bands (ev):

    -6.0172  -6.0169  -6.0167  -6.0164  -5.2487  -5.2487  -5.2484  -5.2484
    -5.1371  -5.1367  -5.1365  -5.1362  -5.0708  -5.0708  -5.0652  -5.0652
    -5.0650  -5.0649  -4.9178  -4.9178  -4.9175  -4.9175  -4.5294  -4.5293
    -4.4813  -4.4813  -4.4811  -4.4810  -4.1142  -4.1141  -4.1137  -4.1137
    -4.0545  -4.0544  -4.0544  -4.0543  -4.0510  -4.0510  -4.0509  -4.0509
    -3.7373  -3.7373  -3.7371  -3.7371  -3.6691  -3.6688  -3.6685  -3.6683
    -3.2869  -3.2869  -3.2868  -3.2868  -3.2681  -3.2680  -3.2676  -3.2675
    -3.1011  -3.1011  -3.0358  -3.0358  -3.0354  -3.0354  -3.0313  -3.0313
    -2.8648  -2.8647  -2.8643  -2.8642  -2.5694  -2.5694  -2.5690  -2.5690
    -2.5555  -2.5554  -2.5553  -2.5552  -2.4641  -2.4641  -2.4641  -2.4641
    -2.1661  -2.1661  -2.1657  -2.1656  -2.1434  -2.1434  -2.1432  -2.1432
    -2.1282  -2.1281  -2.1280  -2.1280  -1.8617  -1.8617  -1.2009  -1.2009
    -1.2008  -1.2008   0.0848   0.0849   0.0852   0.0853   1.0314   1.0314
     1.0319   1.0320   2.1978   2.1978   2.9182   2.9183   2.9184   2.9184
     3.4119   3.4120   3.5837   3.5839   3.5840   3.5841   3.8034

     occupation numbers 
     1.0000   1.0000   1.0000   1.0000   1.0000   1.0000   1.0000   1.0000
     1.0000   1.0000   1.0000   1.0000   1.0000   1.0000   1.0000   1.0000
     1.0000   1.0000   1.0000   1.0000   1.0000   1.0000   1.0000   1.0000
     1.0000   1.0000   1.0000   1.0000   1.0000   1.0000   1.0000   1.0000
     1.0000   1.0000   1.0000   1.0000   1.0000   1.0000   1.0000   1.0000
     1.0000   1.0000   1.0000   1.0000   1.0000   1.0000   1.0000   1.0000
     1.0000   1.0000   1.0000   1.0000   1.0000   1.0000   1.0000   1.0000
     1.0000   1.0000   1.0000   1.0000   1.0000   1.0000   1.0000   1.0000
     1.0000   1.0000   1.0000   1.0000   1.0000   1.0000   1.0000   1.0000
     1.0000   1.0000   1.0000   1.0000   1.0000   1.0000   1.0000   1.0000
     1.0000   1.0000   1.0000   1.0000   1.0000   1.0000   1.0000   1.0000
     1.0000   1.0000   1.0000   1.0000   1.0000   1.0000   1.0000   1.0000
     1.0000   1.0000   0.0000   0.0000   0.0000   0.0000   0.0000   0.0000
     0.0000   0.0000   0.0000   0.0000   0.0000   0.0000   0.0000   0.0000
     0.0000   0.0000   0.0000   0.0000   0.0000   0.0000   0.0000

     the Fermi energy is    -0.5452 ev

!    total energy              =   -2068.89672905 Ry
     estimated scf accuracy    <       0.00000098 Ry
     smearing contrib. (-TS)   =      -0.00112754 Ry
     internal energy E=F+TS    =   -2068.89560151 Ry

     The total energy is F=E-TS. E is the sum of the following terms:
     one-electron contribution =   -3164.61025911 Ry
     hartree contribution      =    1720.72069309 Ry
     xc contribution           =   -1118.63318617 Ry
     ewald contribution        =     493.62715068 Ry

     convergence has been achieved in   6 iterations

     negative rho (up, down):  7.108E-05 0.000E+00

     Forces acting on atoms (cartesian axes, Ry/au):

     atom    1 type  1   force =     0.00021679    0.00000000    0.03029877
     atom    2 type  1   force =     0.00000000   -0.00002249   -0.03027618
     atom    3 type  1   force =     0.00021584   -0.00002216    0.03028215
     atom    4 type  1   force =     0.00000000    0.00000000   -0.03026805
     atom    5 type  1   force =     0.00021584    0.00002216    0.03028215
     atom    6 type  1   force =     0.00000000    0.00002249   -0.03027618
     atom    7 type  1   force =     0.00000000    0.00000000    0.03039296
     atom    8 type  1   force =     0.00021625   -0.00001968   -0.03034512
     atom    9 type  1   force =     0.00000000   -0.00002123    0.03037962
     atom   10 type  1   force =     0.00021472    0.00000000   -0.03033872
     atom   11 type  1   force =     0.00000000    0.00002123    0.03037962
     atom   12 type  1   force =     0.00021625    0.00001968   -0.03034512
     atom   13 type  1   force =    -0.00021679    0.00000000    0.03029877
     atom   14 type  1   force =    -0.00021625   -0.00001968   -0.03034512
     atom   15 type  1   force =    -0.00021584   -0.00002216    0.03028215
     atom   16 type  1   force =    -0.00021472    0.00000000   -0.03033872
     atom   17 type  1   force =    -0.00021584    0.00002216    0.03028215
     atom   18 type  1   force =    -0.00021625    0.00001968   -0.03034512
     The non-local contrib.  to forces
     atom    1 type  1   force =     0.00016168    0.00000000   -0.03980408
     atom    2 type  1   force =     0.00000000   -0.00000370    0.03980684
     atom    3 type  1   force =     0.00016080   -0.00001034   -0.03979996
     atom    4 type  1   force =     0.00000000    0.00000000    0.03976909
     atom    5 type  1   force =     0.00016080    0.00001034   -0.03979996
     atom    6 type  1   force =    -0.00000000    0.00000370    0.03980684
     atom    7 type  1   force =     0.00000000    0.00000000   -0.03978268
     atom    8 type  1   force =     0.00016142   -0.00000236    0.03979800
     atom    9 type  1   force =     0.00000000   -0.00000901   -0.03977516
     atom   10 type  1   force =     0.00016139    0.00000000    0.03976085
     atom   11 type  1   force =     0.00000000    0.00000901   -0.03977516
     atom   12 type  1   force =     0.00016142    0.00000236    0.03979800
     atom   13 type  1   force =    -0.00016168    0.00000000   -0.03980408
     atom   14 type  1   force =    -0.00016142   -0.00000236    0.03979800
     atom   15 type  1   force =    -0.00016080   -0.00001034   -0.03979996
     atom   16 type  1   force =    -0.00016139    0.00000000    0.03976085
     atom   17 type  1   force =    -0.00016080    0.00001034   -0.03979996
     atom   18 type  1   force =    -0.00016142    0.00000236    0.03979800
     The ionic contribution  to forces
     atom    1 type  1   force =    -0.00059617    0.00003317  -20.26319529
     atom    2 type  1   force =    -0.00000000   -0.00127636   20.26292734
     atom    3 type  1   force =    -0.00056765   -0.00126427  -20.26343412
     atom    4 type  1   force =     0.00000000   -0.00000656   20.26322176
     atom    5 type  1   force =    -0.00056765    0.00123531  -20.26343412
     atom    6 type  1   force =    -0.00000000    0.00127871   20.26294408
     atom    7 type  1   force =     0.00000000    0.00003317  -20.26391608
     atom    8 type  1   force =    -0.00032792   -0.00122585   20.26377161
     atom    9 type  1   force =     0.00000000   -0.00126080  -20.26411391
     atom   10 type  1   force =    -0.00032888   -0.00000656   20.26402892
     atom   11 type  1   force =     0.00000000    0.00123185  -20.26411391
     atom   12 type  1   force =    -0.00032792    0.00122820   20.26378836
     atom   13 type  1   force =     0.00059617    0.00003317  -20.26319529
     atom   14 type  1   force =     0.00032792   -0.00122585   20.26377161
     atom   15 type  1   force =     0.00056765   -0.00126427  -20.26343412
     atom   16 type  1   force =     0.00032888   -0.00000656   20.26402892
     atom   17 type  1   force =     0.00056765    0.00123531  -20.26343412
     atom   18 type  1   force =     0.00032792    0.00122820   20.26378836
     The local contribution  to forces
     atom    1 type  1   force =    -0.00026610   -0.00000000   20.31626081
[...]
     0.8820   0.8820   1.8568   1.8568   3.4712   3.4713   3.4714   3.4716
     3.5683   3.5684   3.5689   3.5689   3.9331   3.9331   4.2282

     occupation numbers 
     1.0000   1.0000   1.0000   1.0000   1.0000   1.0000   1.0000   1.0000
     1.0000   1.0000   1.0000   1.0000   1.0000   1.0000   1.0000   1.0000
     1.0000   1.0000   1.0000   1.0000   1.0000   1.0000   1.0000   1.0000
     1.0000   1.0000   1.0000   1.0000   1.0000   1.0000   1.0000   1.0000
     1.0000   1.0000   1.0000   1.0000   1.0000   1.0000   1.0000   1.0000
     1.0000   1.0000   1.0000   1.0000   1.0000   1.0000   1.0000   1.0000
     1.0000   1.0000   1.0000   1.0000   1.0000   1.0000   1.0000   1.0000
     1.0000   1.0000   1.0000   1.0000   1.0000   1.0000   1.0000   1.0000
     1.0000   1.0000   1.0000   1.0000   1.0000   1.0000   1.0000   1.0000
     1.0000   1.0000   1.0000   1.0000   1.0000   1.0000   1.0000   1.0000
     1.0000   1.0000   1.0000   1.0000   1.0000   1.0000   1.0000   1.0000
     1.0000   1.0000   1.0000   1.0000   1.0000   1.0000   1.0000   1.0000
     1.0000   1.0000   0.0000   0.0000   0.0000   0.0000   0.0000   0.0000
     0.0000   0.0000   0.0000   0.0000   0.0000   0.0000   0.0000   0.0000
     0.0000   0.0000   0.0000   0.0000   0.0000   0.0000   0.0000

     the Fermi energy is    -0.2251 ev

!    total energy              =   -2069.02478935 Ry
     estimated scf accuracy    <          5.8E-09 Ry
     smearing contrib. (-TS)   =      -0.00011101 Ry
     internal energy E=F+TS    =   -2069.02467834 Ry

     The total energy is F=E-TS. E is the sum of the following terms:
     one-electron contribution =   -3469.02439567 Ry
     hartree contribution      =    1872.04274915 Ry
     xc contribution           =   -1119.90314513 Ry
     ewald contribution        =     647.86011330 Ry

     convergence has been achieved in   5 iterations

     negative rho (up, down):  1.281E-04 0.000E+00

     Forces acting on atoms (cartesian axes, Ry/au):

     atom    1 type  1   force =     0.00003138    0.00000000    0.00001479
     atom    2 type  1   force =     0.00000000   -0.00003459    0.00000678
     atom    3 type  1   force =     0.00003179   -0.00003346   -0.00000963
     atom    4 type  1   force =     0.00000000    0.00000000    0.00003110
     atom    5 type  1   force =     0.00003179    0.00003346   -0.00000963
     atom    6 type  1   force =     0.00000000    0.00003459    0.00000678
     atom    7 type  1   force =     0.00000000    0.00000000    0.00003317
     atom    8 type  1   force =     0.00003261   -0.00003436   -0.00002249
     atom    9 type  1   force =     0.00000000   -0.00003388    0.00000877
     atom   10 type  1   force =     0.00003233    0.00000000    0.00000177
     atom   11 type  1   force =     0.00000000    0.00003388    0.00000877
     atom   12 type  1   force =     0.00003261    0.00003436   -0.00002249
     atom   13 type  1   force =    -0.00003138    0.00000000    0.00001479
     atom   14 type  1   force =    -0.00003261   -0.00003436   -0.00002249
     atom   15 type  1   force =    -0.00003179   -0.00003346   -0.00000963
     atom   16 type  1   force =    -0.00003233    0.00000000    0.00000177
     atom   17 type  1   force =    -0.00003179    0.00003346   -0.00000963
     atom   18 type  1   force =    -0.00003261    0.00003436   -0.00002249
     The non-local contrib.  to forces
     atom    1 type  1   force =     0.00001699    0.00000000   -0.03940450
     atom    2 type  1   force =     0.00000000    0.00000251    0.03939330
     atom    3 type  1   force =     0.00001686    0.00000314   -0.03939846
     atom    4 type  1   force =     0.00000000    0.00000000    0.03938827
     atom    5 type  1   force =     0.00001686   -0.00000314   -0.03939846
     atom    6 type  1   force =     0.00000000   -0.00000251    0.03939330
     atom    7 type  1   force =     0.00000000    0.00000000   -0.03942719
     atom    8 type  1   force =     0.00001394    0.00000200    0.03941632
     atom    9 type  1   force =     0.00000000    0.00000248   -0.03942215
     atom   10 type  1   force =     0.00001392    0.00000000    0.03941222
     atom   11 type  1   force =    -0.00000000   -0.00000248   -0.03942215
     atom   12 type  1   force =     0.00001394   -0.00000200    0.03941632
     atom   13 type  1   force =    -0.00001699    0.00000000   -0.03940450
     atom   14 type  1   force =    -0.00001394    0.00000200    0.03941632
     atom   15 type  1   force =    -0.00001686    0.00000314   -0.03939846
     atom   16 type  1   force =    -0.00001392    0.00000000    0.03941222
     atom   17 type  1   force =    -0.00001686   -0.00000314   -0.03939846
     atom   18 type  1   force =    -0.00001394   -0.00000200    0.03941632
     The ionic contribution  to forces
     atom    1 type  1   force =     0.00154861    0.00003639  -16.08636036
     atom    2 type  1   force =    -0.00000000   -0.00323345   16.08480988
     atom    3 type  1   force =     0.00158173   -0.00314247  -16.09028693
     atom    4 type  1   force =     0.00000000   -0.00000751   16.08960233
     atom    5 type  1   force =     0.00158173    0.00311352  -16.09028693
     atom    6 type  1   force =    -0.00000000    0.00323353   16.08482581
     atom    7 type  1   force =    -0.00000000    0.00003639  -16.09259886
     atom    8 type  1   force =     0.00134466   -0.00318543   16.09180744
     atom    9 type  1   force =    -0.00000000   -0.00314064  -16.09679266
     atom   10 type  1   force =     0.00135707   -0.00000751   16.09677649
     atom   11 type  1   force =    -0.00000000    0.00311169  -16.09679266
     atom   12 type  1   force =     0.00134467    0.00318551   16.09182337
     atom   13 type  1   force =    -0.00154861    0.00003639  -16.08636036
     atom   14 type  1   force =    -0.00134466   -0.00318543   16.09180744
     atom   15 type  1   force =    -0.00158173   -0.00314247  -16.09028693
     atom   16 type  1   force =    -0.00135707   -0.00000751   16.09677649
     atom   17 type  1   force =    -0.00158173    0.00311352  -16.09028693
     atom   18 type  1   force =    -0.00134467    0.00318551   16.09182337
     The local contribution  to forces
     atom    1 type  1   force =    -0.00154303    0.00000000   16.10150272
     atom    2 type  1   force =    -0.00000000    0.00314518  -16.09992528
     atom    3 type  1   force =    -0.00157384    0.00304148   16.10538500
     atom    4 type  1   force =     0.00000000   -0.00004369  -16.10466622
     atom    5 type  1   force =    -0.00157384   -0.00312885   16.10538500
     atom    6 type  1   force =     0.00000000   -0.00323255  -16.09992528
     atom    7 type  1   force =     0.00000000    0.00000000   16.10778193
     atom    8 type  1   force =    -0.00133946    0.00310054  -16.10696914
     atom    9 type  1   force =     0.00000000    0.00304227   16.11193291
     atom   10 type  1   force =    -0.00135039   -0.00004369  -16.11188813
     atom   11 type  1   force =     0.00000000   -0.00312965   16.11193291
     atom   12 type  1   force =    -0.00133946   -0.00318792  -16.10696914
     atom   13 type  1   force =     0.00154303    0.00000000   16.10150272
     atom   14 type  1   force =     0.00133946    0.00310054  -16.10696914
     atom   15 type  1   force =     0.00157384    0.00304148   16.10538500
     atom   16 type  1   force =     0.00135039   -0.00004369  -16.11188813
     atom   17 type  1   force =     0.00157384   -0.00312885   16.10538500
     atom   18 type  1   force =     0.00133946   -0.00318792  -16.10696914
     The core correction contribution to forces
     atom    1 type  1   force =    -0.00001065   -0.00000000    0.02428331
     atom    2 type  1   force =     0.00000000   -0.00000757   -0.02428437
     atom    3 type  1   force =    -0.00001078   -0.00000814    0.02429579
     atom    4 type  1   force =    -0.00000000   -0.00001511   -0.02429712
     atom    5 type  1   force =    -0.00001077   -0.00002209    0.02429579
     atom    6 type  1   force =     0.00000000   -0.00002265   -0.02428436
     atom    7 type  1   force =     0.00000000    0.00000000    0.02427880
     atom    8 type  1   force =    -0.00000457   -0.00000790   -0.02428880
     atom    9 type  1   force =     0.00000000   -0.00000806    0.02429111
     atom   10 type  1   force =    -0.00000442   -0.00001512   -0.02430157
     atom   11 type  1   force =     0.00000000   -0.00002218    0.02429111
     atom   12 type  1   force =    -0.00000457   -0.00002233   -0.02428879
     atom   13 type  1   force =     0.00001065   -0.00000000    0.02428331
     atom   14 type  1   force =     0.00000457   -0.00000790   -0.02428880
     atom   15 type  1   force =     0.00001078   -0.00000814    0.02429579
     atom   16 type  1   force =     0.00000442   -0.00001512   -0.02430157
     atom   17 type  1   force =     0.00001077   -0.00002209    0.02429579
     atom   18 type  1   force =     0.00000457   -0.00002233   -0.02428879
     The Hubbard contrib.    to forces
     atom    1 type  1   force =     0.00000000    0.00000000    0.00000000
     atom    2 type  1   force =     0.00000000    0.00000000    0.00000000
     atom    3 type  1   force =     0.00000000    0.00000000    0.00000000
     atom    4 type  1   force =     0.00000000    0.00000000    0.00000000
     atom    5 type  1   force =     0.00000000    0.00000000    0.00000000
     atom    6 type  1   force =     0.00000000    0.00000000    0.00000000
     atom    7 type  1   force =     0.00000000    0.00000000    0.00000000
     atom    8 type  1   force =     0.00000000    0.00000000    0.00000000
     atom    9 type  1   force =     0.00000000    0.00000000    0.00000000
     atom   10 type  1   force =     0.00000000    0.00000000    0.00000000
     atom   11 type  1   force =     0.00000000    0.00000000    0.00000000
     atom   12 type  1   force =     0.00000000    0.00000000    0.00000000
     atom   13 type  1   force =     0.00000000    0.00000000    0.00000000
     atom   14 type  1   force =     0.00000000    0.00000000    0.00000000
     atom   15 type  1   force =     0.00000000    0.00000000    0.00000000
     atom   16 type  1   force =     0.00000000    0.00000000    0.00000000
     atom   17 type  1   force =     0.00000000    0.00000000    0.00000000
     atom   18 type  1   force =     0.00000000    0.00000000    0.00000000
     The SCF correction term to forces
     atom    1 type  1   force =     0.00001946    0.00000000   -0.00000582
     atom    2 type  1   force =     0.00000000   -0.00000002    0.00000585
     atom    3 type  1   force =     0.00001782   -0.00000075   -0.00000447
     atom    4 type  1   force =    -0.00000000    0.00000000    0.00000440
     atom    5 type  1   force =     0.00001782    0.00000075   -0.00000447
     atom    6 type  1   force =     0.00000000    0.00000002    0.00000585
     atom    7 type  1   force =    -0.00000000    0.00000000   -0.00000094
     atom    8 type  1   force =     0.00001803   -0.00000234    0.00000430
     atom    9 type  1   force =    -0.00000000   -0.00000321    0.00000014
     atom   10 type  1   force =     0.00001616    0.00000000    0.00000333
     atom   11 type  1   force =    -0.00000000    0.00000321    0.00000014
     atom   12 type  1   force =     0.00001803    0.00000234    0.00000430
     atom   13 type  1   force =    -0.00001946    0.00000000   -0.00000582
     atom   14 type  1   force =    -0.00001803   -0.00000234    0.00000430
     atom   15 type  1   force =    -0.00001782   -0.00000075   -0.00000447
     atom   16 type  1   force =    -0.00001616    0.00000000    0.00000333
     atom   17 type  1   force =    -0.00001782    0.00000075   -0.00000447
     atom   18 type  1   force =    -0.00001803    0.00000234    0.00000430

     Total force =     0.000177     Total SCF correction =     0.000065
     SCF correction compared to forces is large: reduce conv_thr to get better values


     Computing stress (Cartesian axis) and pressure


     negative rho (up, down):  1.281E-04 0.000E+00
          total   stress  (Ry/bohr**3)                   (kbar)     P=       18.99
   0.00030436   0.00000000   0.00000000           44.77        0.00        0.00
   0.00000000   0.00008465   0.00000000            0.00       12.45        0.00
   0.00000000   0.00000000  -0.00000178            0.00        0.00       -0.26

     kinetic stress (kbar)   4809.93      0.00      0.00
                                0.00   4789.85      0.00
                                0.00      0.00   4916.32

     local   stress (kbar) -51451.85     -0.00      0.00
                               -0.00 -52384.37      0.00
                                0.00      0.00  64032.70

     nonloc. stress (kbar)  -3050.30      0.00      0.00
                                0.00  -3043.10      0.00
                                0.00      0.00  -3058.64

     hartree stress (kbar)  27939.90     -0.00     -0.00
                               -0.00  28312.03      0.00
                               -0.00      0.00 -26327.27

     exc-cor stress (kbar)  12480.61     -0.00     -0.00
                               -0.00  12481.49     -0.00
                               -0.00     -0.00  12469.23

     corecor stress (kbar) -14402.74      0.00      0.00
                                0.00 -14400.30     -0.00
                                0.00     -0.00 -14412.59

     ewald   stress (kbar)  23719.23     -0.00     -0.00
                               -0.00  24256.85     -0.00
                               -0.00     -0.00 -37620.02

     hubbard stress (kbar)      0.00      0.00      0.00
                                0.00      0.00      0.00
                                0.00      0.00      0.00

     DFT-D   stress (kbar)      0.00      0.00      0.00
                                0.00      0.00      0.00
                                0.00      0.00      0.00

     XDM     stress (kbar)      0.00      0.00      0.00
                                0.00      0.00      0.00
                                0.00      0.00      0.00

     dft-nl  stress (kbar)      0.00      0.00      0.00
                                0.00      0.00      0.00
                                0.00      0.00      0.00

     TS-vdW  stress (kbar)      0.00      0.00      0.00
                                0.00      0.00      0.00
                                0.00      0.00      0.00


     Energy error            =      8.2E-07
     Gradient error          =      3.5E-05

     bfgs converged in   9 scf cycles and   8 bfgs steps
     (criteria: energy <  1.0E-04 Ry, force <  1.0E-03 Ry/Bohr)

     End of BFGS Geometry Optimization

     Final energy   =   -2069.0247893461 Ry

     File ./surface.bfgs deleted, as requested
Begin final coordinates

ATOMIC_POSITIONS (angstrom)
Au            2.0391343036        0.0000000000        0.2628508228
Au            0.0000000000        1.4420028421        1.1789283029
Au            2.0391352662        2.8838837285        0.2627655105
Au            0.0000000000        4.3256370000        1.1790514580
Au            2.0391352662        5.7673902715        0.2627655105
Au            0.0000000000        7.2092711579        1.1789283029
Au            6.1173750000        0.0000000000        0.2625958375
Au            4.0782582467        1.4420009038        1.1792306037
Au            6.1173750000        2.8838832224        0.2625005952
Au            4.0782599858        4.3256370000        1.1793599029
Au            6.1173750000        5.7673907776        0.2625005952
Au            4.0782582467        7.2092730962        1.1792306037
Au           10.1956156964        0.0000000000        0.2628508228
Au            8.1564917533        1.4420009038        1.1792306037
Au           10.1956147338        2.8838837285        0.2627655105
Au            8.1564900142        4.3256370000        1.1793599029
Au           10.1956147338        5.7673902715        0.2627655105
Au            8.1564917533        7.2092730962        1.1792306037
End final coordinates



     Writing output data file ./surface.save/

     init_run     :      1.93s CPU      2.05s WALL (       1 calls)
     electrons    :    316.40s CPU    326.16s WALL (       9 calls)
     update_pot   :      2.08s CPU      2.09s WALL (       8 calls)
     forces       :      9.95s CPU     10.30s WALL (       9 calls)
     stress       :     33.71s CPU     34.29s WALL (       9 calls)

     Called by init_run:
     wfcinit      :      1.21s CPU      1.23s WALL (       1 calls)
     wfcinit:atom :      0.01s CPU      0.01s WALL (       9 calls)
     wfcinit:wfcr :      1.16s CPU      1.17s WALL (       9 calls)
     potinit      :      0.11s CPU      0.11s WALL (       1 calls)
     hinit0       :      0.18s CPU      0.22s WALL (       1 calls)

     Called by electrons:
     c_bands      :    270.24s CPU    273.19s WALL (      71 calls)
     sum_band     :     35.48s CPU     39.25s WALL (      71 calls)
     v_of_rho     :      2.39s CPU      2.42s WALL (      78 calls)
     v_h          :      0.17s CPU      0.17s WALL (      78 calls)
     v_xc         :      2.74s CPU      2.76s WALL (      96 calls)
     newd         :      8.80s CPU     11.37s WALL (      78 calls)
     mix_rho      :      0.22s CPU      0.22s WALL (      71 calls)

     Called by c_bands:
     init_us_2    :      2.45s CPU      2.50s WALL (    1449 calls)
     cegterg      :    264.31s CPU    267.16s WALL (     639 calls)

     Called by sum_band:
     sum_band:wei :      0.03s CPU      0.03s WALL (      71 calls)
     sum_band:loo :     24.58s CPU     24.91s WALL (      71 calls)
     sum_band:buf :      0.33s CPU      0.34s WALL (     639 calls)
     sum_band:ini :      1.13s CPU      1.14s WALL (     639 calls)
     sum_band:cal :      8.23s CPU      8.29s WALL (     639 calls)
     sum_band:bec :      0.31s CPU      0.31s WALL (     639 calls)
     addusdens    :      9.03s CPU     12.44s WALL (      71 calls)
     addusd:skk   :      0.14s CPU      0.14s WALL (      71 calls)
     addusd:dgemm :      3.96s CPU      7.31s WALL (      71 calls)
     addusd:qvan2 :      3.98s CPU      4.00s WALL (      71 calls)

     Called by *egterg:
     cdiaghg      :     42.36s CPU     42.68s WALL (    3199 calls)
     cegterg:over :     22.35s CPU     22.55s WALL (    2650 calls)
     cegterg:upda :     11.57s CPU     11.66s WALL (    2650 calls)
     cegterg:last :     27.69s CPU     27.90s WALL (    1962 calls)
     cdiaghg:chol :      1.77s CPU      1.79s WALL (    3199 calls)
     cdiaghg:inve :      1.42s CPU      1.44s WALL (    3199 calls)
     cdiaghg:para :      3.26s CPU      3.29s WALL (    6398 calls)
     h_psi        :    140.99s CPU    142.87s WALL (    3298 calls)
     s_psi        :     14.12s CPU     14.23s WALL (    3298 calls)
     g_psi        :      0.21s CPU      0.21s WALL (    2650 calls)

     Called by h_psi:
     h_psi:calbec :     30.49s CPU     30.72s WALL (    3298 calls)
     vloc_psi     :     95.33s CPU     96.86s WALL (    3298 calls)
     add_vuspsi   :     14.65s CPU     14.76s WALL (    3298 calls)

     General routines
     calbec       :     44.55s CPU     44.89s WALL (    4342 calls)
     fft          :      2.04s CPU      2.10s WALL (    1231 calls)
     ffts         :      0.08s CPU      0.08s WALL (     149 calls)
     fftw         :    104.37s CPU    106.05s WALL (  589127 calls)
     interpolate  :      0.15s CPU      0.15s WALL (      78 calls)

     Parallel routines
     fft_scatt_xy :      6.34s CPU      6.43s WALL (  590507 calls)
     fft_scatt_yz :     60.27s CPU     61.34s WALL (  590507 calls)

     PWSCF        :   6m 6.06s CPU   6m19.44s WALL


   This run was terminated on:  19: 6:16   6Dec2021            

=------------------------------------------------------------------------------=
   JOB DONE.
=------------------------------------------------------------------------------=
