
     Program PWSCF v.6.7MaX starts on  6Dec2021 at 19: 2:59 

     This program is part of the open-source Quantum ESPRESSO suite
     for quantum simulation of materials; please cite
         "P. Giannozzi et al., J. Phys.:Condens. Matter 21 395502 (2009);
         "P. Giannozzi et al., J. Phys.:Condens. Matter 29 465901 (2017);
          URL http://www.quantum-espresso.org", 
     in publications or presentations arising from this work. More details at
     http://www.quantum-espresso.org/quote

     Parallel version (MPI), running on    64 processors

     MPI processes distributed on     1 nodes
     R & G space division:  proc/nbgrp/npool/nimage =      64
     Reading input from ag_surface.110.qe.in

     Current dimensions of program PWSCF are:
     Max number of different atomic species (ntypx) = 10
     Max number of k-points (npk) =  40000
     Max angular momentum in pseudopotentials (lmaxx) =  3

     Subspace diagonalization in iterative solution of the eigenvalue problem:
     one sub-group per band group will be used
     scalapack distributed-memory algorithm (size of sub-group:  8*  8 procs)

     Found symmetry operation: I + (  0.0000  0.3333  0.0000)
     This is a supercell, fractional translations are disabled

     Parallelization info
     --------------------
     sticks:   dense  smooth     PW     G-vecs:    dense   smooth      PW
     Min         146      58     16                13190     3334     470
     Max         147      60     18                13199     3337     476
     Sum        9385    3773   1037               844339   213469   30209



     bravais-lattice index     =            8
     lattice parameter (alat)  =      23.5869  a.u.
     unit-cell volume          =    9621.1061 (a.u.)^3
     number of atoms/cell      =           18
     number of atomic types    =            1
     number of electrons       =       342.00
     number of Kohn-Sham states=          205
     kinetic-energy cutoff     =      30.0000  Ry
     charge density cutoff     =     300.0000  Ry
     scf convergence threshold =      1.0E-06
     mixing beta               =       0.3000
     number of iterations used =            8  plain     mixing
     energy convergence thresh.=      1.0E-04
     force convergence thresh. =      1.0E-03
     Exchange-correlation=  SLA  PW   PBX  PBC
                           (   1   4   3   4   0   0   0)
     nstep                     =           50


     celldm(1)=  23.586881  celldm(2)=   0.707107  celldm(3)=   1.036879
     celldm(4)=   0.000000  celldm(5)=   0.000000  celldm(6)=   0.000000

     crystal axes: (cart. coord. in units of alat)
               a(1) = (   1.000000   0.000000   0.000000 )  
               a(2) = (   0.000000   0.707107   0.000000 )  
               a(3) = (   0.000000   0.000000   1.036879 )  

     reciprocal axes: (cart. coord. in units 2 pi/alat)
               b(1) = (  1.000000  0.000000  0.000000 )  
               b(2) = (  0.000000  1.414212  0.000000 )  
               b(3) = (  0.000000  0.000000  0.964433 )  


     PseudoPot. # 1 for Ag read from file:
     /expanse/lustre/projects/csd622/tpascal/nano110/qe/pseudo/ag_pbe_v1.4.uspp.F.UPF
     MD5 check sum: d66d668201baa78d5eb5b04ef7011058
     Pseudo is Ultrasoft + core correction, Zval = 19.0
     Generated by new atomic code, or converted to UPF format
     Using radial grid of  887 points,  6 beta functions with: 
                l(1) =   0
                l(2) =   0
                l(3) =   1
                l(4) =   1
                l(5) =   2
                l(6) =   2
     Q(r) pseudized with  6 coefficients,  rinner =    1.300   1.300   1.300
                                                       1.300   1.300

     atomic species   valence    mass     pseudopotential
        Ag            19.00   107.86820     Ag( 1.00)

      4 Sym. Ops. (no inversion) found


                                    s                        frac. trans.

      isym =  1     identity                                     

 cryst.   s( 1) = (     1          0          0      )
                  (     0          1          0      )
                  (     0          0          1      )

 cart.    s( 1) = (  1.0000000  0.0000000  0.0000000 )
                  (  0.0000000  1.0000000  0.0000000 )
                  (  0.0000000  0.0000000  1.0000000 )


      isym =  2     180 deg rotation - cart. axis [0,0,1]        

 cryst.   s( 2) = (    -1          0          0      )
                  (     0         -1          0      )
                  (     0          0          1      )

 cart.    s( 2) = ( -1.0000000  0.0000000  0.0000000 )
                  (  0.0000000 -1.0000000  0.0000000 )
                  (  0.0000000  0.0000000  1.0000000 )


      isym =  3     inv. 180 deg rotation - cart. axis [0,1,0]   

 cryst.   s( 3) = (     1          0          0      )
                  (     0         -1          0      )
                  (     0          0          1      )

 cart.    s( 3) = (  1.0000000  0.0000000  0.0000000 )
                  (  0.0000000 -1.0000000  0.0000000 )
                  (  0.0000000  0.0000000  1.0000000 )


      isym =  4     inv. 180 deg rotation - cart. axis [1,0,0]   

 cryst.   s( 4) = (    -1          0          0      )
                  (     0          1          0      )
                  (     0          0          1      )

 cart.    s( 4) = ( -1.0000000  0.0000000  0.0000000 )
                  (  0.0000000  1.0000000  0.0000000 )
                  (  0.0000000  0.0000000  1.0000000 )


     point group C_2v (mm2) 
     there are  4 classes
     the character table:

       E     C2    s_v   s_v' 
A_1    1.00  1.00  1.00  1.00
A_2    1.00  1.00 -1.00 -1.00
B_1    1.00 -1.00  1.00 -1.00
B_2    1.00 -1.00 -1.00  1.00

     the symmetry operations in each class and the name of the first element:

     E        1
          identity                                               
     C2       2
          180 deg rotation - cart. axis [0,0,1]                  
     s_v      4
          inv. 180 deg rotation - cart. axis [1,0,0]             
     s_v'     3
          inv. 180 deg rotation - cart. axis [0,1,0]             

   Cartesian axes

     site n.     atom                  positions (alat units)
         1           Ag  tau(   1) = (   0.0000000   0.0000000   0.0000000  )
         2           Ag  tau(   2) = (   0.1666667   0.1178512   0.1178512  )
         3           Ag  tau(   3) = (   0.0000000   0.2357024   0.0000000  )
         4           Ag  tau(   4) = (   0.1666667   0.3535535   0.1178512  )
         5           Ag  tau(   5) = (   0.0000000   0.4714047   0.0000000  )
         6           Ag  tau(   6) = (   0.1666667   0.5892559   0.1178512  )
         7           Ag  tau(   7) = (   0.3333334   0.0000000   0.0000000  )
         8           Ag  tau(   8) = (   0.5000002   0.1178512   0.1178512  )
         9           Ag  tau(   9) = (   0.3333334   0.2357024   0.0000000  )
        10           Ag  tau(  10) = (   0.5000002   0.3535535   0.1178512  )
        11           Ag  tau(  11) = (   0.3333334   0.4714047   0.0000000  )
        12           Ag  tau(  12) = (   0.5000002   0.5892559   0.1178512  )
        13           Ag  tau(  13) = (   0.6666669   0.0000000   0.0000000  )
        14           Ag  tau(  14) = (   0.8333336   0.1178512   0.1178512  )
        15           Ag  tau(  15) = (   0.6666669   0.2357024   0.0000000  )
        16           Ag  tau(  16) = (   0.8333336   0.3535535   0.1178512  )
        17           Ag  tau(  17) = (   0.6666669   0.4714047   0.0000000  )
        18           Ag  tau(  18) = (   0.8333336   0.5892559   0.1178512  )

   Crystallographic axes

     site n.     atom                  positions (cryst. coord.)
         1           Ag  tau(   1) = (  0.0000000  0.0000000  0.0000000  )
         2           Ag  tau(   2) = (  0.1666667  0.1666666  0.1136595  )
         3           Ag  tau(   3) = (  0.0000000  0.3333332  0.0000000  )
         4           Ag  tau(   4) = (  0.1666667  0.4999998  0.1136595  )
         5           Ag  tau(   5) = (  0.0000000  0.6666664  0.0000000  )
         6           Ag  tau(   6) = (  0.1666667  0.8333330  0.1136595  )
         7           Ag  tau(   7) = (  0.3333334  0.0000000  0.0000000  )
         8           Ag  tau(   8) = (  0.5000002  0.1666666  0.1136595  )
         9           Ag  tau(   9) = (  0.3333334  0.3333332  0.0000000  )
        10           Ag  tau(  10) = (  0.5000002  0.4999998  0.1136595  )
        11           Ag  tau(  11) = (  0.3333334  0.6666664  0.0000000  )
        12           Ag  tau(  12) = (  0.5000002  0.8333330  0.1136595  )
        13           Ag  tau(  13) = (  0.6666669  0.0000000  0.0000000  )
        14           Ag  tau(  14) = (  0.8333336  0.1666666  0.1136595  )
        15           Ag  tau(  15) = (  0.6666669  0.3333332  0.0000000  )
        16           Ag  tau(  16) = (  0.8333336  0.4999998  0.1136595  )
        17           Ag  tau(  17) = (  0.6666669  0.6666664  0.0000000  )
        18           Ag  tau(  18) = (  0.8333336  0.8333330  0.1136595  )

     number of k points=     9  Gaussian smearing, width (Ry)=  0.0030
                       cart. coord. in units 2pi/alat
        k(    1) = (   0.0000000   0.0000000   0.0000000), wk =   0.1250000
        k(    2) = (   0.0000000   0.3535531   0.0000000), wk =   0.2500000
        k(    3) = (   0.0000000  -0.7071062   0.0000000), wk =   0.1250000
        k(    4) = (   0.2500000   0.0000000   0.0000000), wk =   0.2500000
        k(    5) = (   0.2500000   0.3535531   0.0000000), wk =   0.5000000
        k(    6) = (   0.2500000  -0.7071062   0.0000000), wk =   0.2500000
        k(    7) = (  -0.5000000   0.0000000   0.0000000), wk =   0.1250000
        k(    8) = (  -0.5000000   0.3535531   0.0000000), wk =   0.2500000
        k(    9) = (  -0.5000000  -0.7071062   0.0000000), wk =   0.1250000

                       cryst. coord.
        k(    1) = (   0.0000000   0.0000000   0.0000000), wk =   0.1250000
        k(    2) = (   0.0000000   0.2500000   0.0000000), wk =   0.2500000
        k(    3) = (   0.0000000  -0.5000000   0.0000000), wk =   0.1250000
        k(    4) = (   0.2500000   0.0000000   0.0000000), wk =   0.2500000
        k(    5) = (   0.2500000   0.2500000   0.0000000), wk =   0.5000000
        k(    6) = (   0.2500000  -0.5000000   0.0000000), wk =   0.2500000
        k(    7) = (  -0.5000000   0.0000000   0.0000000), wk =   0.1250000
        k(    8) = (  -0.5000000   0.2500000   0.0000000), wk =   0.2500000
        k(    9) = (  -0.5000000  -0.5000000   0.0000000), wk =   0.1250000

     Dense  grid:   844339 G-vectors     FFT dimensions: ( 135,  96, 135)

     Smooth grid:   213469 G-vectors     FFT dimensions: (  90,  60,  90)

     Dynamical RAM for                 wfc:       1.30 MB

     Dynamical RAM for     wfc (w. buffer):      13.04 MB

     Dynamical RAM for           str. fact:       0.20 MB

     Dynamical RAM for           local pot:       0.00 MB

     Dynamical RAM for          nlocal pot:       2.06 MB

     Dynamical RAM for                qrad:       1.39 MB

     Dynamical RAM for          rho,v,vnew:       1.49 MB

     Dynamical RAM for               rhoin:       0.50 MB

     Dynamical RAM for            rho*nmix:       3.22 MB

     Dynamical RAM for           G-vectors:       0.78 MB

     Dynamical RAM for          h,s,v(r/c):       0.12 MB

     Dynamical RAM for          <psi|beta>:       1.01 MB

     Dynamical RAM for                 psi:       2.61 MB

     Dynamical RAM for                hpsi:       2.61 MB

     Dynamical RAM for                spsi:       2.61 MB

     Dynamical RAM for      wfcinit/wfcrot:       4.23 MB

     Dynamical RAM for           addusdens:      41.06 MB

     Dynamical RAM for          addusforce:      48.08 MB

     Dynamical RAM for         addusstress:      40.46 MB

     Estimated static dynamical RAM per process >      24.58 MB

     Estimated max dynamical RAM per process >      72.66 MB

     Estimated total dynamical RAM >       4.54 GB

     Initial potential from superposition of free atoms

     starting charge  332.99915, renormalised to  342.00000

     negative rho (up, down):  7.036E-03 0.000E+00
     Starting wfcs are  234 randomized atomic wfcs

     total cpu time spent up to now is        2.7 secs

     Self-consistent Calculation

     iteration #  1     ecut=    30.00 Ry     beta= 0.30
     Davidson diagonalization with overlap
     ethr =  1.00E-02,  avg # of iterations =  7.1

     negative rho (up, down):  1.418E-03 0.000E+00

     total cpu time spent up to now is       10.3 secs

     total energy              =   -5312.65725393 Ry
     estimated scf accuracy    <      31.76676397 Ry

     iteration #  2     ecut=    30.00 Ry     beta= 0.30
     Davidson diagonalization with overlap
     ethr =  9.29E-03,  avg # of iterations =  2.1

     negative rho (up, down):  2.040E-03 0.000E+00

     total cpu time spent up to now is       15.7 secs

     total energy              =   -5320.09927010 Ry
     estimated scf accuracy    <       1.08392251 Ry

     iteration #  3     ecut=    30.00 Ry     beta= 0.30
     Davidson diagonalization with overlap
     ethr =  3.17E-04,  avg # of iterations =  3.8

     negative rho (up, down):  3.081E-03 0.000E+00

     total cpu time spent up to now is       20.9 secs

     total energy              =   -5320.13880253 Ry
     estimated scf accuracy    <       0.13001353 Ry

     iteration #  4     ecut=    30.00 Ry     beta= 0.30
     Davidson diagonalization with overlap
     ethr =  3.80E-05,  avg # of iterations =  6.7

     negative rho (up, down):  6.792E-03 0.000E+00

     total cpu time spent up to now is       28.0 secs

     total energy              =   -5320.16121266 Ry
     estimated scf accuracy    <       0.01182913 Ry

     iteration #  5     ecut=    30.00 Ry     beta= 0.30
     Davidson diagonalization with overlap
     ethr =  3.46E-06,  avg # of iterations =  9.8

     negative rho (up, down):  5.505E-03 0.000E+00

     total cpu time spent up to now is       36.0 secs

     total energy              =   -5320.16204180 Ry
     estimated scf accuracy    <       0.00910111 Ry

     iteration #  6     ecut=    30.00 Ry     beta= 0.30
     Davidson diagonalization with overlap
     ethr =  2.66E-06,  avg # of iterations =  2.0

     negative rho (up, down):  5.565E-03 0.000E+00

     total cpu time spent up to now is       41.4 secs

     total energy              =   -5320.16293206 Ry
     estimated scf accuracy    <       0.00030850 Ry

     iteration #  7     ecut=    30.00 Ry     beta= 0.30
     Davidson diagonalization with overlap
     ethr =  9.02E-08,  avg # of iterations =  2.0

     negative rho (up, down):  5.636E-03 0.000E+00

     total cpu time spent up to now is       46.8 secs

     total energy              =   -5320.16301213 Ry
     estimated scf accuracy    <       0.00003468 Ry

     iteration #  8     ecut=    30.00 Ry     beta= 0.30
     Davidson diagonalization with overlap
     ethr =  1.01E-08,  avg # of iterations =  1.4

     negative rho (up, down):  5.726E-03 0.000E+00

     total cpu time spent up to now is       51.0 secs

     total energy              =   -5320.16301244 Ry
     estimated scf accuracy    <       0.00001302 Ry

     iteration #  9     ecut=    30.00 Ry     beta= 0.30
     Davidson diagonalization with overlap
     ethr =  3.81E-09,  avg # of iterations =  2.0

     negative rho (up, down):  5.751E-03 0.000E+00

     total cpu time spent up to now is       56.4 secs

     total energy              =   -5320.16301615 Ry
     estimated scf accuracy    <       0.00000429 Ry

     iteration # 10     ecut=    30.00 Ry     beta= 0.30
     Davidson diagonalization with overlap
     ethr =  1.25E-09,  avg # of iterations =  2.0

     negative rho (up, down):  5.783E-03 0.000E+00

     total cpu time spent up to now is       61.5 secs

     End of self-consistent calculation

          k = 0.0000 0.0000 0.0000 ( 26735 PWs)   bands (ev):

   -90.8422 -90.8401 -90.8400 -90.8367 -90.8367 -90.8357 -90.8357 -90.8356
   -90.8356 -90.8356 -90.8356 -90.8335 -90.8335 -90.8335 -90.8334 -90.8334
   -90.8324 -90.8324 -54.3558 -54.3558 -54.3558 -54.3558 -54.3556 -54.3556
   -54.3511 -54.3511 -54.3511 -54.3511 -54.3453 -54.3453 -54.3286 -54.3280
   -54.3280 -54.3209 -54.3209 -54.3143 -54.3088 -54.3088 -54.3074 -54.3072
   -54.3072 -54.3072 -54.3072 -54.3014 -54.3014 -54.3014 -54.3014 -54.3005
   -54.3005 -54.2981 -54.2981 -54.2892 -54.2892 -54.2892 -54.2879 -54.2879
   -54.2826 -54.2809 -54.2809 -54.2809 -54.2809 -54.2801 -54.2800 -54.2777
   -54.2777 -54.2769 -54.2769 -54.2769 -54.2769 -54.2696 -54.2696 -54.2673
    -4.5410  -4.4788  -4.4788  -4.4727  -4.3507  -4.3507  -4.0228  -4.0227
    -3.9594  -3.9594  -3.9453  -3.9453  -3.9338  -3.9338  -3.9338  -3.9338
    -3.8931  -3.8931  -3.8524  -3.8524  -3.8524  -3.8524  -3.7904  -3.7515
    -3.7515  -3.7515  -3.7515  -3.7036  -3.7036  -3.7016  -3.7016  -3.7015
    -3.7015  -3.6390  -3.3364  -3.3069  -3.3069  -3.3069  -3.3069  -3.2730
    -3.2730  -3.1942  -3.1942  -3.1831  -3.1831  -3.1168  -3.1168  -3.0958
    -2.9708  -2.9708  -2.9174  -2.9174  -2.8928  -2.8928  -2.8927  -2.8927
    -2.8917  -2.8917  -2.8917  -2.8917  -2.8210  -2.7616  -2.7616  -2.7616
    -2.7616  -2.7453  -2.7141  -2.7141  -2.6983  -2.6983  -2.5729  -2.5496
    -2.5496  -2.5496  -2.5496  -2.4798  -2.4696  -2.4696  -2.4678  -2.4678
    -2.4678  -2.4678  -2.4406  -2.4406  -2.3627  -2.3627  -2.3301  -2.3301
    -2.2379  -2.2379  -2.1864  -2.1864  -2.1720  -1.4913  -1.4912  -0.2919
    -0.2918  -0.2918  -0.2918   0.2920   0.7155   0.7155   1.6539   1.6539
     2.4118   2.4118   2.5519   2.5519   2.5519   2.5519   3.2097   3.6639
     3.6639   4.3247   4.3247   4.3247   4.3247   4.9197   5.0074   5.0074
     5.0675   5.1827   5.1827   5.2511   5.6093   5.6093   5.9840   5.9840
     5.9840   5.9840   6.2031   6.2032   6.4983

     occupation numbers 
     1.0000   1.0000   1.0000   1.0000   1.0000   1.0000   1.0000   1.0000
     1.0000   1.0000   1.0000   1.0000   1.0000   1.0000   1.0000   1.0000
     1.0000   1.0000   1.0000   1.0000   1.0000   1.0000   1.0000   1.0000
     1.0000   1.0000   1.0000   1.0000   1.0000   1.0000   1.0000   1.0000
     1.0000   1.0000   1.0000   1.0000   1.0000   1.0000   1.0000   1.0000
     1.0000   1.0000   1.0000   1.0000   1.0000   1.0000   1.0000   1.0000
     1.0000   1.0000   1.0000   1.0000   1.0000   1.0000   1.0000   1.0000
     1.0000   1.0000   1.0000   1.0000   1.0000   1.0000   1.0000   1.0000
     1.0000   1.0000   1.0000   1.0000   1.0000   1.0000   1.0000   1.0000
     1.0000   1.0000   1.0000   1.0000   1.0000   1.0000   1.0000   1.0000
     1.0000   1.0000   1.0000   1.0000   1.0000   1.0000   1.0000   1.0000
     1.0000   1.0000   1.0000   1.0000   1.0000   1.0000   1.0000   1.0000
     1.0000   1.0000   1.0000   1.0000   1.0000   1.0000   1.0000   1.0000
     1.0000   1.0000   1.0000   1.0000   1.0000   1.0000   1.0000   1.0000
     1.0000   1.0000   1.0000   1.0000   1.0000   1.0000   1.0000   1.0000
     1.0000   1.0000   1.0000   1.0000   1.0000   1.0000   1.0000   1.0000
     1.0000   1.0000   1.0000   1.0000   1.0000   1.0000   1.0000   1.0000
     1.0000   1.0000   1.0000   1.0000   1.0000   1.0000   1.0000   1.0000
     1.0000   1.0000   1.0000   1.0000   1.0000   1.0000   1.0000   1.0000
     1.0000   1.0000   1.0000   1.0000   1.0000   1.0000   1.0000   1.0000
     1.0000   1.0000   1.0000   1.0000   1.0000   1.0000   1.0000   1.0000
     1.0000   1.0000   1.0000   1.0000   0.0000   0.0000   0.0000   0.0000
     0.0000   0.0000   0.0000   0.0000   0.0000   0.0000   0.0000   0.0000
     0.0000   0.0000   0.0000   0.0000   0.0000   0.0000   0.0000   0.0000
     0.0000   0.0000   0.0000   0.0000   0.0000   0.0000   0.0000   0.0000
     0.0000   0.0000   0.0000   0.0000   0.0000

          k = 0.0000 0.3536 0.0000 ( 26681 PWs)   bands (ev):

   -90.8418 -90.8397 -90.8396 -90.8388 -90.8372 -90.8372 -90.8355 -90.8354
   -90.8349 -90.8343 -90.8343 -90.8341 -90.8341 -90.8334 -90.8332 -90.8332
   -90.8326 -90.8326 -54.3667 -54.3666 -54.3657 -54.3640 -54.3640 -54.3600
   -54.3400 -54.3396 -54.3396 -54.3344 -54.3344 -54.3287 -54.3274 -54.3274
   -54.3269 -54.3210 -54.3210 -54.3160 -54.3144 -54.3135 -54.3135 -54.3121
   -54.3057 -54.3057 -54.3042 -54.3042 -54.3003 -54.3003 -54.3002 -54.2994
   -54.2973 -54.2972 -54.2944 -54.2929 -54.2929 -54.2892 -54.2881 -54.2868
   -54.2866 -54.2844 -54.2833 -54.2833 -54.2814 -54.2814 -54.2793 -54.2793
   -54.2790 -54.2790 -54.2737 -54.2726 -54.2726 -54.2694 -54.2694 -54.2680
    -4.4383  -4.3701  -4.3701  -4.3182  -4.2199  -4.2198  -4.0865  -4.0798
    -4.0757  -4.0503  -4.0502  -4.0251  -4.0048  -4.0048  -3.9842  -3.8559
    -3.8559  -3.8367  -3.8366  -3.8199  -3.7824  -3.7824  -3.7789  -3.7699
    -3.7699  -3.7677  -3.7388  -3.6806  -3.6806  -3.6719  -3.6719  -3.6545
    -3.5524  -3.5409  -3.5408  -3.3971  -3.3971  -3.3328  -3.2807  -3.2807
    -3.2369  -3.2175  -3.2175  -3.1984  -3.1984  -3.1488  -3.1488  -3.1376
    -3.1375  -3.1238  -3.1238  -3.0302  -3.0302  -3.0102  -2.9525  -2.9391
    -2.8716  -2.8538  -2.8537  -2.7973  -2.7973  -2.7475  -2.7475  -2.7139
    -2.7138  -2.7126  -2.7079  -2.7079  -2.6942  -2.6942  -2.6672  -2.6454
    -2.6154  -2.5523  -2.5522  -2.5196  -2.5196  -2.4788  -2.4544  -2.4434
    -2.4414  -2.4091  -2.4088  -2.3698  -2.3698  -2.3657  -2.3622  -2.2750
    -2.2750  -2.2364  -2.2364  -2.2273  -1.9912  -1.9912  -1.1087  -1.1087
    -0.1078   0.4421   0.8414   0.8415   0.9175   0.9175   1.5307   1.7644
     1.7644   1.8717   1.8718   3.1539   3.3144   3.3144   3.3440   3.3626
     3.3626   3.8365   3.8365   3.9312   4.3609   4.7341   4.7341   5.0548
     5.0648   5.0649   5.1301   5.1301   5.2928   5.3680   5.8958   5.8959
     5.9060   6.0801   6.1083   6.1083   6.2981

     occupation numbers 
     1.0000   1.0000   1.0000   1.0000   1.0000   1.0000   1.0000   1.0000
     1.0000   1.0000   1.0000   1.0000   1.0000   1.0000   1.0000   1.0000
     1.0000   1.0000   1.0000   1.0000   1.0000   1.0000   1.0000   1.0000
     1.0000   1.0000   1.0000   1.0000   1.0000   1.0000   1.0000   1.0000
     1.0000   1.0000   1.0000   1.0000   1.0000   1.0000   1.0000   1.0000
     1.0000   1.0000   1.0000   1.0000   1.0000   1.0000   1.0000   1.0000
     1.0000   1.0000   1.0000   1.0000   1.0000   1.0000   1.0000   1.0000
     1.0000   1.0000   1.0000   1.0000   1.0000   1.0000   1.0000   1.0000
     1.0000   1.0000   1.0000   1.0000   1.0000   1.0000   1.0000   1.0000
     1.0000   1.0000   1.0000   1.0000   1.0000   1.0000   1.0000   1.0000
     1.0000   1.0000   1.0000   1.0000   1.0000   1.0000   1.0000   1.0000
     1.0000   1.0000   1.0000   1.0000   1.0000   1.0000   1.0000   1.0000
     1.0000   1.0000   1.0000   1.0000   1.0000   1.0000   1.0000   1.0000
     1.0000   1.0000   1.0000   1.0000   1.0000   1.0000   1.0000   1.0000
     1.0000   1.0000   1.0000   1.0000   1.0000   1.0000   1.0000   1.0000
     1.0000   1.0000   1.0000   1.0000   1.0000   1.0000   1.0000   1.0000
     1.0000   1.0000   1.0000   1.0000   1.0000   1.0000   1.0000   1.0000
     1.0000   1.0000   1.0000   1.0000   1.0000   1.0000   1.0000   1.0000
     1.0000   1.0000   1.0000   1.0000   1.0000   1.0000   1.0000   1.0000
     1.0000   1.0000   1.0000   1.0000   1.0000   1.0000   1.0000   1.0000
     1.0000   1.0000   1.0000   1.0000   1.0000   1.0000   1.0000   1.0000
     1.0000   0.9888   0.0000   0.0000   0.0000   0.0000   0.0000   0.0000
     0.0000   0.0000   0.0000   0.0000   0.0000   0.0000   0.0000   0.0000
     0.0000   0.0000   0.0000   0.0000   0.0000   0.0000   0.0000   0.0000
     0.0000   0.0000   0.0000   0.0000   0.0000   0.0000   0.0000   0.0000
     0.0000   0.0000   0.0000   0.0000   0.0000

          k = 0.0000-0.7071 0.0000 ( 26726 PWs)   bands (ev):

   -90.8406 -90.8405 -90.8387 -90.8386 -90.8386 -90.8386 -90.8349 -90.8349
   -90.8348 -90.8348 -90.8336 -90.8335 -90.8335 -90.8335 -90.8334 -90.8333
   -90.8330 -90.8330 -54.3698 -54.3698 -54.3698 -54.3697 -54.3675 -54.3674
   -54.3277 -54.3277 -54.3277 -54.3277 -54.3249 -54.3249 -54.3231 -54.3231
   -54.3230 -54.3230 -54.3228 -54.3227 -54.3170 -54.3170 -54.3150 -54.3150
   -54.3150 -54.3150 -54.3015 -54.3015 -54.3015 -54.3015 -54.2958 -54.2957
   -54.2957 -54.2956 -54.2953 -54.2953 -54.2923 -54.2922 -54.2916 -54.2915
   -54.2876 -54.2875 -54.2851 -54.2851 -54.2850 -54.2849 -54.2786 -54.2786
   -54.2786 -54.2786 -54.2706 -54.2706 -54.2701 -54.2701 -54.2701 -54.2700
    -4.1737  -4.1737  -4.1235  -4.1235  -4.0947  -4.0947  -4.0795  -4.0795
    -4.0794  -4.0794  -4.0775  -4.0774  -4.0774  -4.0773  -3.9295  -3.9294
    -3.8963  -3.8963  -3.8962  -3.8962  -3.8922  -3.8922  -3.8922  -3.8921
    -3.7435  -3.7434  -3.7114  -3.7114  -3.6340  -3.6340  -3.6339  -3.6339
    -3.4879  -3.4878  -3.4008  -3.4008  -3.4008  -3.4008  -3.2977  -3.2976
    -3.2976  -3.2976  -3.2976  -3.2976  -3.2747  -3.2747  -3.2746  -3.2746
    -3.1562  -3.1562  -3.1561  -3.1561  -2.9814  -2.9814  -2.9813  -2.9813
    -2.9706  -2.9706  -2.8118  -2.8117  -2.7496  -2.7496  -2.7496  -2.7495
    -2.7214  -2.7214  -2.7214  -2.7214  -2.6608  -2.6608  -2.6608  -2.6608
    -2.6264  -2.6264  -2.5066  -2.5065  -2.4654  -2.4653  -2.4451  -2.4451
    -2.4451  -2.4451  -2.4354  -2.4354  -2.3961  -2.3961  -2.3486  -2.3485
    -2.2072  -2.2072  -2.2072  -2.2071  -1.6260  -1.6260  -1.6260  -1.6259
     0.8676   0.8677   1.1971   1.1971   1.1972   1.1972   1.5437   1.5437
     2.4139   2.4139   2.4139   2.4140   2.4627   2.4628   2.4628   2.4628
     3.7357   3.7358   4.3247   4.3247   4.3248   4.3248   4.9846   4.9847
     5.4072   5.4073   5.4074   5.4074   5.4506   5.4507   5.4981   5.4982
     5.4982   5.4982   5.7178   5.7178   5.9269

     occupation numbers 
     1.0000   1.0000   1.0000   1.0000   1.0000   1.0000   1.0000   1.0000
     1.0000   1.0000   1.0000   1.0000   1.0000   1.0000   1.0000   1.0000
     1.0000   1.0000   1.0000   1.0000   1.0000   1.0000   1.0000   1.0000
     1.0000   1.0000   1.0000   1.0000   1.0000   1.0000   1.0000   1.0000
     1.0000   1.0000   1.0000   1.0000   1.0000   1.0000   1.0000   1.0000
     1.0000   1.0000   1.0000   1.0000   1.0000   1.0000   1.0000   1.0000
     1.0000   1.0000   1.0000   1.0000   1.0000   1.0000   1.0000   1.0000
     1.0000   1.0000   1.0000   1.0000   1.0000   1.0000   1.0000   1.0000
     1.0000   1.0000   1.0000   1.0000   1.0000   1.0000   1.0000   1.0000
     1.0000   1.0000   1.0000   1.0000   1.0000   1.0000   1.0000   1.0000
     1.0000   1.0000   1.0000   1.0000   1.0000   1.0000   1.0000   1.0000
     1.0000   1.0000   1.0000   1.0000   1.0000   1.0000   1.0000   1.0000
     1.0000   1.0000   1.0000   1.0000   1.0000   1.0000   1.0000   1.0000
     1.0000   1.0000   1.0000   1.0000   1.0000   1.0000   1.0000   1.0000
     1.0000   1.0000   1.0000   1.0000   1.0000   1.0000   1.0000   1.0000
     1.0000   1.0000   1.0000   1.0000   1.0000   1.0000   1.0000   1.0000
     1.0000   1.0000   1.0000   1.0000   1.0000   1.0000   1.0000   1.0000
     1.0000   1.0000   1.0000   1.0000   1.0000   1.0000   1.0000   1.0000
     1.0000   1.0000   1.0000   1.0000   1.0000   1.0000   1.0000   1.0000
     1.0000   1.0000   1.0000   1.0000   1.0000   1.0000   1.0000   1.0000
     1.0000   1.0000   1.0000   1.0000   1.0000   1.0000   1.0000   1.0000
     0.0000   0.0000   0.0000   0.0000   0.0000   0.0000   0.0000   0.0000
     0.0000   0.0000   0.0000   0.0000   0.0000   0.0000   0.0000   0.0000
     0.0000   0.0000   0.0000   0.0000   0.0000   0.0000   0.0000   0.0000
     0.0000   0.0000   0.0000   0.0000   0.0000   0.0000   0.0000   0.0000
     0.0000   0.0000   0.0000   0.0000   0.0000

          k = 0.2500 0.0000 0.0000 ( 26687 PWs)   bands (ev):

   -90.8421 -90.8409 -90.8390 -90.8367 -90.8367 -90.8367 -90.8361 -90.8361
   -90.8351 -90.8351 -90.8348 -90.8340 -90.8340 -90.8337 -90.8330 -90.8330
   -90.8324 -90.8324 -54.3560 -54.3560 -54.3551 -54.3551 -54.3550 -54.3550
   -54.3528 -54.3528 -54.3488 -54.3488 -54.3457 -54.3457 -54.3285 -54.3284
   -54.3269 -54.3233 -54.3188 -54.3150 -54.3085 -54.3085 -54.3084 -54.3084
   -54.3069 -54.3061 -54.3061 -54.3035 -54.3028 -54.3028 -54.3000 -54.2999
   -54.2979 -54.2979 -54.2976 -54.2915 -54.2884 -54.2871 -54.2871 -54.2864
   -54.2836 -54.2830 -54.2830 -54.2829 -54.2791 -54.2791 -54.2778 -54.2778
   -54.2770 -54.2770 -54.2768 -54.2768 -54.2765 -54.2714 -54.2675 -54.2670
    -4.5353  -4.5022  -4.4497  -4.4492  -4.3752  -4.3566  -3.9977  -3.9976
    -3.9524  -3.9524  -3.9516  -3.9516  -3.9493  -3.9493  -3.8958  -3.8958
    -3.8958  -3.8958  -3.8734  -3.8734  -3.8311  -3.8311  -3.8231  -3.8231
    -3.8088  -3.7813  -3.7565  -3.7565  -3.7230  -3.7230  -3.6811  -3.6811
    -3.5962  -3.5849  -3.3627  -3.3378  -3.3203  -3.2846  -3.2846  -3.2480
    -3.2480  -3.2382  -3.1945  -3.1945  -3.1184  -3.1002  -3.0999  -3.0512
    -3.0242  -3.0133  -3.0133  -2.9198  -2.9198  -2.9158  -2.9120  -2.9120
    -2.8700  -2.8700  -2.8330  -2.8082  -2.8082  -2.8017  -2.7653  -2.7653
    -2.7521  -2.7130  -2.7130  -2.7002  -2.7002  -2.6841  -2.5735  -2.5615
    -2.5615  -2.5490  -2.5248  -2.5248  -2.5161  -2.5161  -2.4869  -2.4869
    -2.4770  -2.4770  -2.4670  -2.4219  -2.4219  -2.3833  -2.3710  -2.3709
    -2.2797  -2.2066  -2.1750  -2.1713  -1.6866  -1.4029  -1.4029  -0.7886
    -0.7885  -0.1107   0.3275   0.3275   0.3530   0.7836   1.8559   1.8560
     2.0168   2.2645   2.4686   2.4686   2.7578   2.7578   3.2590   3.2615
     3.6057   4.4754   4.5546   4.5547   4.7798   4.7798   4.9639   5.1311
     5.1872   5.2449   5.2449   5.3428   5.6598   5.6599   5.7098   5.7098
     5.7142   5.7142   5.8102   6.4130   6.6301

     occupation numbers 
     1.0000   1.0000   1.0000   1.0000   1.0000   1.0000   1.0000   1.0000
     1.0000   1.0000   1.0000   1.0000   1.0000   1.0000   1.0000   1.0000
     1.0000   1.0000   1.0000   1.0000   1.0000   1.0000   1.0000   1.0000
     1.0000   1.0000   1.0000   1.0000   1.0000   1.0000   1.0000   1.0000
     1.0000   1.0000   1.0000   1.0000   1.0000   1.0000   1.0000   1.0000
     1.0000   1.0000   1.0000   1.0000   1.0000   1.0000   1.0000   1.0000
     1.0000   1.0000   1.0000   1.0000   1.0000   1.0000   1.0000   1.0000
     1.0000   1.0000   1.0000   1.0000   1.0000   1.0000   1.0000   1.0000
     1.0000   1.0000   1.0000   1.0000   1.0000   1.0000   1.0000   1.0000
     1.0000   1.0000   1.0000   1.0000   1.0000   1.0000   1.0000   1.0000
     1.0000   1.0000   1.0000   1.0000   1.0000   1.0000   1.0000   1.0000
     1.0000   1.0000   1.0000   1.0000   1.0000   1.0000   1.0000   1.0000
     1.0000   1.0000   1.0000   1.0000   1.0000   1.0000   1.0000   1.0000
     1.0000   1.0000   1.0000   1.0000   1.0000   1.0000   1.0000   1.0000
     1.0000   1.0000   1.0000   1.0000   1.0000   1.0000   1.0000   1.0000
     1.0000   1.0000   1.0000   1.0000   1.0000   1.0000   1.0000   1.0000
     1.0000   1.0000   1.0000   1.0000   1.0000   1.0000   1.0000   1.0000
     1.0000   1.0000   1.0000   1.0000   1.0000   1.0000   1.0000   1.0000
     1.0000   1.0000   1.0000   1.0000   1.0000   1.0000   1.0000   1.0000
     1.0000   1.0000   1.0000   1.0000   1.0000   1.0000   1.0000   1.0000
     1.0000   1.0000   1.0000   1.0000   1.0000   1.0000   1.0000   1.0000
     1.0000   1.0000   1.0000   1.0000   1.0000   0.0000   0.0000   0.0000
     0.0000   0.0000   0.0000   0.0000   0.0000   0.0000   0.0000   0.0000
     0.0000   0.0000   0.0000   0.0000   0.0000   0.0000   0.0000   0.0000
     0.0000   0.0000   0.0000   0.0000   0.0000   0.0000   0.0000   0.0000
     0.0000   0.0000   0.0000   0.0000   0.0000

          k = 0.2500 0.3536 0.0000 ( 26718 PWs)   bands (ev):

   -90.8416 -90.8405 -90.8387 -90.8386 -90.8378 -90.8365 -90.8364 -90.8348
   -90.8348 -90.8346 -90.8345 -90.8340 -90.8335 -90.8335 -90.8334 -90.8330
   -90.8327 -90.8327 -54.3671 -54.3665 -54.3659 -54.3656 -54.3628 -54.3601
   -54.3406 -54.3402 -54.3390 -54.3360 -54.3321 -54.3289 -54.3275 -54.3271
   -54.3268 -54.3235 -54.3186 -54.3167 -54.3152 -54.3152 -54.3120 -54.3113
   -54.3083 -54.3064 -54.3028 -54.3023 -54.3009 -54.3001 -54.2999 -54.2999
   -54.2981 -54.2967 -54.2964 -54.2946 -54.2905 -54.2884 -54.2875 -54.2872
   -54.2863 -54.2853 -54.2839 -54.2826 -54.2823 -54.2823 -54.2818 -54.2812
   -54.2767 -54.2764 -54.2733 -54.2731 -54.2725 -54.2715 -54.2679 -54.2678
    -4.4317  -4.3944  -4.3386  -4.2958  -4.2545  -4.2140  -4.0806  -4.0718
    -4.0716  -4.0641  -4.0337  -4.0183  -4.0071  -3.9841  -3.9583  -3.9261
    -3.8936  -3.8198  -3.8166  -3.8073  -3.8033  -3.7990  -3.7809  -3.7706
    -3.7640  -3.7610  -3.7590  -3.7510  -3.7297  -3.6145  -3.5999  -3.5952
    -3.5703  -3.5443  -3.5359  -3.4760  -3.3584  -3.3477  -3.3225  -3.2732
    -3.2577  -3.2398  -3.2279  -3.1787  -3.1693  -3.1473  -3.1135  -3.1123
    -3.1015  -3.0982  -3.0612  -3.0561  -3.0249  -2.9732  -2.9711  -2.9503
    -2.9170  -2.8844  -2.8713  -2.8712  -2.8088  -2.8062  -2.8021  -2.7234
    -2.7031  -2.6860  -2.6803  -2.6801  -2.6677  -2.6527  -2.6421  -2.6078
    -2.6061  -2.5988  -2.5820  -2.5635  -2.5107  -2.4649  -2.4528  -2.4464
    -2.4420  -2.4320  -2.4294  -2.4121  -2.3271  -2.3210  -2.3104  -2.2769
    -2.2520  -2.2515  -2.2452  -2.2304  -2.2204  -1.5939  -1.4842  -0.4956
    -0.0407   0.0465   0.4773   0.5031   0.9209   1.0509   1.4723   1.5889
     1.9229   2.2089   2.4686   2.8112   3.2179   3.3970   3.4417   3.5175
     3.5559   3.7561   3.8448   3.9811   4.3812   4.4199   4.6777   4.7421
     4.8522   5.0999   5.1932   5.2731   5.2997   5.4667   5.9327   5.9738
     6.0244   6.1221   6.1322   6.2054   6.2877

     occupation numbers 
     1.0000   1.0000   1.0000   1.0000   1.0000   1.0000   1.0000   1.0000
     1.0000   1.0000   1.0000   1.0000   1.0000   1.0000   1.0000   1.0000
     1.0000   1.0000   1.0000   1.0000   1.0000   1.0000   1.0000   1.0000
     1.0000   1.0000   1.0000   1.0000   1.0000   1.0000   1.0000   1.0000
     1.0000   1.0000   1.0000   1.0000   1.0000   1.0000   1.0000   1.0000
     1.0000   1.0000   1.0000   1.0000   1.0000   1.0000   1.0000   1.0000
     1.0000   1.0000   1.0000   1.0000   1.0000   1.0000   1.0000   1.0000
     1.0000   1.0000   1.0000   1.0000   1.0000   1.0000   1.0000   1.0000
     1.0000   1.0000   1.0000   1.0000   1.0000   1.0000   1.0000   1.0000
     1.0000   1.0000   1.0000   1.0000   1.0000   1.0000   1.0000   1.0000
     1.0000   1.0000   1.0000   1.0000   1.0000   1.0000   1.0000   1.0000
     1.0000   1.0000   1.0000   1.0000   1.0000   1.0000   1.0000   1.0000
     1.0000   1.0000   1.0000   1.0000   1.0000   1.0000   1.0000   1.0000
     1.0000   1.0000   1.0000   1.0000   1.0000   1.0000   1.0000   1.0000
     1.0000   1.0000   1.0000   1.0000   1.0000   1.0000   1.0000   1.0000
     1.0000   1.0000   1.0000   1.0000   1.0000   1.0000   1.0000   1.0000
     1.0000   1.0000   1.0000   1.0000   1.0000   1.0000   1.0000   1.0000
     1.0000   1.0000   1.0000   1.0000   1.0000   1.0000   1.0000   1.0000
     1.0000   1.0000   1.0000   1.0000   1.0000   1.0000   1.0000   1.0000
     1.0000   1.0000   1.0000   1.0000   1.0000   1.0000   1.0000   1.0000
     1.0000   1.0000   1.0000   1.0000   1.0000   1.0000   1.0000   1.0000
     1.0000   1.0000   0.8566   0.5677   0.0000   0.0000   0.0000   0.0000
     0.0000   0.0000   0.0000   0.0000   0.0000   0.0000   0.0000   0.0000
     0.0000   0.0000   0.0000   0.0000   0.0000   0.0000   0.0000   0.0000
     0.0000   0.0000   0.0000   0.0000   0.0000   0.0000   0.0000   0.0000
     0.0000   0.0000   0.0000   0.0000   0.0000

          k = 0.2500-0.7071 0.0000 ( 26680 PWs)   bands (ev):

   -90.8404 -90.8404 -90.8394 -90.8393 -90.8377 -90.8377 -90.8358 -90.8357
   -90.8341 -90.8341 -90.8336 -90.8335 -90.8335 -90.8335 -90.8334 -90.8333
   -90.8331 -90.8331 -54.3704 -54.3704 -54.3689 -54.3689 -54.3680 -54.3679
   -54.3277 -54.3277 -54.3272 -54.3272 -54.3254 -54.3254 -54.3248 -54.3248
   -54.3218 -54.3218 -54.3204 -54.3204 -54.3174 -54.3174 -54.3174 -54.3174
   -54.3115 -54.3115 -54.3042 -54.3042 -54.2987 -54.2987 -54.2960 -54.2959
   -54.2958 -54.2958 -54.2954 -54.2953 -54.2933 -54.2932 -54.2900 -54.2899
   -54.2863 -54.2863 -54.2862 -54.2862 -54.2841 -54.2840 -54.2814 -54.2814
   -54.2759 -54.2759 -54.2717 -54.2716 -54.2701 -54.2701 -54.2694 -54.2693
    -4.1616  -4.1615  -4.1219  -4.1218  -4.1047  -4.1046  -4.1001  -4.1001
    -4.0751  -4.0751  -4.0527  -4.0526  -4.0474  -4.0473  -3.9536  -3.9535
    -3.9507  -3.9506  -3.9069  -3.9068  -3.8587  -3.8587  -3.8586  -3.8586
    -3.7791  -3.7791  -3.7328  -3.7327  -3.6451  -3.6451  -3.5142  -3.5142
    -3.4934  -3.4933  -3.4510  -3.4510  -3.4279  -3.4279  -3.3613  -3.3612
    -3.3023  -3.3023  -3.2959  -3.2959  -3.2796  -3.2796  -3.2334  -3.2334
    -3.1481  -3.1481  -3.0864  -3.0863  -2.9847  -2.9847  -2.9790  -2.9789
    -2.9374  -2.9373  -2.8546  -2.8546  -2.8421  -2.8421  -2.8292  -2.8291
    -2.6766  -2.6766  -2.6596  -2.6596  -2.6377  -2.6377  -2.6174  -2.6174
    -2.6049  -2.6049  -2.5046  -2.5045  -2.4956  -2.4956  -2.4892  -2.4892
    -2.4179  -2.4179  -2.4047  -2.4046  -2.3646  -2.3646  -2.3552  -2.3551
    -2.2572  -2.2572  -2.1720  -2.1719  -2.0243  -2.0242  -1.0691  -1.0691
     0.4535   0.4535   0.9278   0.9278   1.3098   1.3099   1.6062   1.6062
     2.0658   2.0658   2.7477   2.7478   2.7629   2.7630   3.0285   3.0285
     3.7916   3.7916   3.9586   3.9587   4.1858   4.1858   5.0417   5.0418
     5.0888   5.0889   5.2342   5.2343   5.3922   5.3924   5.4987   5.4987
     5.6384   5.6384   5.6925   5.6926   5.8442

     occupation numbers 
     1.0000   1.0000   1.0000   1.0000   1.0000   1.0000   1.0000   1.0000
     1.0000   1.0000   1.0000   1.0000   1.0000   1.0000   1.0000   1.0000
     1.0000   1.0000   1.0000   1.0000   1.0000   1.0000   1.0000   1.0000
     1.0000   1.0000   1.0000   1.0000   1.0000   1.0000   1.0000   1.0000
     1.0000   1.0000   1.0000   1.0000   1.0000   1.0000   1.0000   1.0000
     1.0000   1.0000   1.0000   1.0000   1.0000   1.0000   1.0000   1.0000
     1.0000   1.0000   1.0000   1.0000   1.0000   1.0000   1.0000   1.0000
     1.0000   1.0000   1.0000   1.0000   1.0000   1.0000   1.0000   1.0000
     1.0000   1.0000   1.0000   1.0000   1.0000   1.0000   1.0000   1.0000
     1.0000   1.0000   1.0000   1.0000   1.0000   1.0000   1.0000   1.0000
     1.0000   1.0000   1.0000   1.0000   1.0000   1.0000   1.0000   1.0000
     1.0000   1.0000   1.0000   1.0000   1.0000   1.0000   1.0000   1.0000
     1.0000   1.0000   1.0000   1.0000   1.0000   1.0000   1.0000   1.0000
     1.0000   1.0000   1.0000   1.0000   1.0000   1.0000   1.0000   1.0000
     1.0000   1.0000   1.0000   1.0000   1.0000   1.0000   1.0000   1.0000
     1.0000   1.0000   1.0000   1.0000   1.0000   1.0000   1.0000   1.0000
     1.0000   1.0000   1.0000   1.0000   1.0000   1.0000   1.0000   1.0000
     1.0000   1.0000   1.0000   1.0000   1.0000   1.0000   1.0000   1.0000
     1.0000   1.0000   1.0000   1.0000   1.0000   1.0000   1.0000   1.0000
     1.0000   1.0000   1.0000   1.0000   1.0000   1.0000   1.0000   1.0000
     1.0000   1.0000   1.0000   1.0000   1.0000   1.0000   1.0000   1.0000
     0.9706   0.9704   0.0000   0.0000   0.0000   0.0000   0.0000   0.0000
     0.0000   0.0000   0.0000   0.0000   0.0000   0.0000   0.0000   0.0000
     0.0000   0.0000   0.0000   0.0000   0.0000   0.0000   0.0000   0.0000
     0.0000   0.0000   0.0000   0.0000   0.0000   0.0000   0.0000   0.0000
     0.0000   0.0000   0.0000   0.0000   0.0000

          k =-0.5000 0.0000 0.0000 ( 26682 PWs)   bands (ev):

   -90.8417 -90.8416 -90.8379 -90.8378 -90.8365 -90.8365 -90.8364 -90.8364
   -90.8346 -90.8345 -90.8345 -90.8344 -90.8342 -90.8341 -90.8327 -90.8327
   -90.8326 -90.8326 -54.3554 -54.3554 -54.3553 -54.3553 -54.3541 -54.3540
   -54.3540 -54.3540 -54.3469 -54.3469 -54.3468 -54.3468 -54.3291 -54.3291
   -54.3257 -54.3257 -54.3171 -54.3170 -54.3081 -54.3081 -54.3080 -54.3080
   -54.3056 -54.3055 -54.3044 -54.3044 -54.3043 -54.3043 -54.2985 -54.2985
   -54.2984 -54.2984 -54.2954 -54.2953 -54.2865 -54.2864 -54.2852 -54.2852
   -54.2851 -54.2851 -54.2843 -54.2842 -54.2777 -54.2776 -54.2776 -54.2776
   -54.2773 -54.2773 -54.2772 -54.2772 -54.2743 -54.2743 -54.2675 -54.2674
    -4.5214  -4.5214  -4.4129  -4.4128  -4.3982  -4.3981  -3.9548  -3.9548
    -3.9547  -3.9547  -3.9340  -3.9340  -3.9340  -3.9340  -3.9234  -3.9234
    -3.9234  -3.9234  -3.8473  -3.8472  -3.8472  -3.8472  -3.8218  -3.8218
    -3.8217  -3.8217  -3.8168  -3.8168  -3.6979  -3.6979  -3.6979  -3.6978
    -3.4777  -3.4777  -3.4726  -3.4725  -3.2745  -3.2744  -3.2323  -3.2323
    -3.2322  -3.2322  -3.1341  -3.1341  -3.1340  -3.1340  -3.1107  -3.1107
    -3.0699  -3.0699  -2.9209  -2.9209  -2.9208  -2.9208  -2.9177  -2.9176
    -2.8667  -2.8666  -2.8450  -2.8450  -2.8449  -2.8449  -2.7469  -2.7469
    -2.7107  -2.7107  -2.7106  -2.7106  -2.6022  -2.6022  -2.6022  -2.6022
    -2.5802  -2.5802  -2.5508  -2.5508  -2.5507  -2.5507  -2.4979  -2.4979
    -2.4979  -2.4979  -2.4320  -2.4319  -2.3893  -2.3893  -2.3893  -2.3893
    -2.2390  -2.2390  -2.1713  -2.1712  -1.1605  -1.1604  -1.1604  -1.1604
    -0.9624  -0.9623   0.5301   0.5302   1.0578   1.0579   1.0579   1.0579
     2.6177   2.6177   2.6177   2.6178   2.6202   2.6203   3.3781   3.3782
     3.4081   3.4082   5.0733   5.0733   5.0917   5.0917   5.0918   5.0918
     5.4271   5.4272   5.4272   5.4272   5.5222   5.5222   5.5952   5.5952
     5.5953   5.5953   5.7256   5.7281   6.2258

     occupation numbers 
     1.0000   1.0000   1.0000   1.0000   1.0000   1.0000   1.0000   1.0000
     1.0000   1.0000   1.0000   1.0000   1.0000   1.0000   1.0000   1.0000
     1.0000   1.0000   1.0000   1.0000   1.0000   1.0000   1.0000   1.0000
     1.0000   1.0000   1.0000   1.0000   1.0000   1.0000   1.0000   1.0000
     1.0000   1.0000   1.0000   1.0000   1.0000   1.0000   1.0000   1.0000
     1.0000   1.0000   1.0000   1.0000   1.0000   1.0000   1.0000   1.0000
     1.0000   1.0000   1.0000   1.0000   1.0000   1.0000   1.0000   1.0000
     1.0000   1.0000   1.0000   1.0000   1.0000   1.0000   1.0000   1.0000
     1.0000   1.0000   1.0000   1.0000   1.0000   1.0000   1.0000   1.0000
     1.0000   1.0000   1.0000   1.0000   1.0000   1.0000   1.0000   1.0000
     1.0000   1.0000   1.0000   1.0000   1.0000   1.0000   1.0000   1.0000
     1.0000   1.0000   1.0000   1.0000   1.0000   1.0000   1.0000   1.0000
     1.0000   1.0000   1.0000   1.0000   1.0000   1.0000   1.0000   1.0000
     1.0000   1.0000   1.0000   1.0000   1.0000   1.0000   1.0000   1.0000
     1.0000   1.0000   1.0000   1.0000   1.0000   1.0000   1.0000   1.0000
     1.0000   1.0000   1.0000   1.0000   1.0000   1.0000   1.0000   1.0000
     1.0000   1.0000   1.0000   1.0000   1.0000   1.0000   1.0000   1.0000
     1.0000   1.0000   1.0000   1.0000   1.0000   1.0000   1.0000   1.0000
     1.0000   1.0000   1.0000   1.0000   1.0000   1.0000   1.0000   1.0000
     1.0000   1.0000   1.0000   1.0000   1.0000   1.0000   1.0000   1.0000
     1.0000   1.0000   1.0000   1.0000   1.0000   1.0000   1.0000   1.0000
     1.0000   1.0000   0.2220   0.2212   0.0000   0.0000   0.0000   0.0000
     0.0000   0.0000   0.0000   0.0000   0.0000   0.0000   0.0000   0.0000
     0.0000   0.0000   0.0000   0.0000   0.0000   0.0000   0.0000   0.0000
     0.0000   0.0000   0.0000   0.0000   0.0000   0.0000   0.0000   0.0000
     0.0000   0.0000   0.0000   0.0000   0.0000

          k =-0.5000 0.3536 0.0000 ( 26714 PWs)   bands (ev):

   -90.8412 -90.8411 -90.8384 -90.8383 -90.8376 -90.8375 -90.8357 -90.8356
   -90.8348 -90.8347 -90.8340 -90.8339 -90.8338 -90.8337 -90.8330 -90.8329
   -90.8328 -90.8327 -54.3666 -54.3665 -54.3660 -54.3659 -54.3610 -54.3609
   -54.3407 -54.3406 -54.3379 -54.3378 -54.3304 -54.3303 -54.3276 -54.3275
   -54.3252 -54.3252 -54.3169 -54.3168 -54.3161 -54.3161 -54.3104 -54.3104
   -54.3094 -54.3093 -54.3009 -54.3008 -54.2999 -54.2999 -54.2995 -54.2994
   -54.2988 -54.2987 -54.2957 -54.2956 -54.2886 -54.2885 -54.2870 -54.2869
   -54.2857 -54.2856 -54.2844 -54.2843 -54.2831 -54.2830 -54.2812 -54.2811
   -54.2750 -54.2750 -54.2735 -54.2735 -54.2728 -54.2727 -54.2680 -54.2679
    -4.4153  -4.4152  -4.2982  -4.2982  -4.2473  -4.2472  -4.0801  -4.0800
    -4.0569  -4.0568  -4.0051  -4.0050  -3.9888  -3.9887  -3.9579  -3.9578
    -3.8853  -3.8852  -3.8066  -3.8066  -3.8044  -3.8044  -3.8041  -3.8040
    -3.7689  -3.7688  -3.7546  -3.7546  -3.6716  -3.6716  -3.5709  -3.5708
    -3.5193  -3.5192  -3.4901  -3.4901  -3.4518  -3.4517  -3.2862  -3.2862
    -3.2456  -3.2456  -3.1996  -3.1995  -3.1430  -3.1429  -3.0638  -3.0638
    -3.0402  -3.0401  -3.0299  -3.0299  -3.0286  -3.0286  -2.9902  -2.9901
    -2.9318  -2.9317  -2.9201  -2.9200  -2.8498  -2.8498  -2.7561  -2.7561
    -2.6757  -2.6757  -2.6575  -2.6575  -2.6452  -2.6452  -2.6443  -2.6443
    -2.6009  -2.6009  -2.5650  -2.5649  -2.4883  -2.4882  -2.4767  -2.4766
    -2.4360  -2.4360  -2.4031  -2.4031  -2.3604  -2.3604  -2.2847  -2.2846
    -2.2758  -2.2758  -2.2373  -2.2373  -1.9590  -1.9590  -0.7856  -0.7856
     0.1566   0.1567   0.2374   0.2375   0.6783   0.6784   1.7473   1.7473
     2.1233   2.1234   2.8047   2.8048   3.3794   3.3795   3.5479   3.5480
     3.5726   3.5727   4.1109   4.1110   4.1309   4.1310   4.5917   4.5918
     4.9060   4.9061   5.2128   5.2128   5.6443   5.6443   5.7470   5.8415
     5.8441   6.1681   6.1682   6.2697   6.2698

     occupation numbers 
     1.0000   1.0000   1.0000   1.0000   1.0000   1.0000   1.0000   1.0000
     1.0000   1.0000   1.0000   1.0000   1.0000   1.0000   1.0000   1.0000
     1.0000   1.0000   1.0000   1.0000   1.0000   1.0000   1.0000   1.0000
     1.0000   1.0000   1.0000   1.0000   1.0000   1.0000   1.0000   1.0000
     1.0000   1.0000   1.0000   1.0000   1.0000   1.0000   1.0000   1.0000
     1.0000   1.0000   1.0000   1.0000   1.0000   1.0000   1.0000   1.0000
     1.0000   1.0000   1.0000   1.0000   1.0000   1.0000   1.0000   1.0000
     1.0000   1.0000   1.0000   1.0000   1.0000   1.0000   1.0000   1.0000
     1.0000   1.0000   1.0000   1.0000   1.0000   1.0000   1.0000   1.0000
     1.0000   1.0000   1.0000   1.0000   1.0000   1.0000   1.0000   1.0000
     1.0000   1.0000   1.0000   1.0000   1.0000   1.0000   1.0000   1.0000
     1.0000   1.0000   1.0000   1.0000   1.0000   1.0000   1.0000   1.0000
     1.0000   1.0000   1.0000   1.0000   1.0000   1.0000   1.0000   1.0000
     1.0000   1.0000   1.0000   1.0000   1.0000   1.0000   1.0000   1.0000
     1.0000   1.0000   1.0000   1.0000   1.0000   1.0000   1.0000   1.0000
     1.0000   1.0000   1.0000   1.0000   1.0000   1.0000   1.0000   1.0000
     1.0000   1.0000   1.0000   1.0000   1.0000   1.0000   1.0000   1.0000
     1.0000   1.0000   1.0000   1.0000   1.0000   1.0000   1.0000   1.0000
     1.0000   1.0000   1.0000   1.0000   1.0000   1.0000   1.0000   1.0000
     1.0000   1.0000   1.0000   1.0000   1.0000   1.0000   1.0000   1.0000
     1.0000   1.0000   1.0000   1.0000   1.0000   1.0000   1.0000   1.0000
     1.0000   1.0000   1.0000   1.0000   0.0000   0.0000   0.0000   0.0000
     0.0000   0.0000   0.0000   0.0000   0.0000   0.0000   0.0000   0.0000
     0.0000   0.0000   0.0000   0.0000   0.0000   0.0000   0.0000   0.0000
     0.0000   0.0000   0.0000   0.0000   0.0000   0.0000   0.0000   0.0000
     0.0000   0.0000   0.0000   0.0000   0.0000

          k =-0.5000-0.7071 0.0000 ( 26604 PWs)   bands (ev):

   -90.8400 -90.8400 -90.8400 -90.8399 -90.8368 -90.8368 -90.8367 -90.8366
   -90.8336 -90.8336 -90.8335 -90.8335 -90.8335 -90.8335 -90.8334 -90.8334
   -90.8334 -90.8333 -54.3704 -54.3703 -54.3684 -54.3683 -54.3683 -54.3682
   -54.3266 -54.3265 -54.3265 -54.3265 -54.3264 -54.3264 -54.3264 -54.3264
   -54.3197 -54.3197 -54.3197 -54.3197 -54.3184 -54.3183 -54.3183 -54.3183
   -54.3080 -54.3080 -54.3079 -54.3079 -54.2967 -54.2966 -54.2966 -54.2965
   -54.2958 -54.2957 -54.2942 -54.2941 -54.2941 -54.2940 -54.2879 -54.2878
   -54.2877 -54.2877 -54.2840 -54.2839 -54.2839 -54.2839 -54.2831 -54.2830
   -54.2736 -54.2736 -54.2735 -54.2735 -54.2692 -54.2692 -54.2691 -54.2691
    -4.1331  -4.1331  -4.1330  -4.1330  -4.1150  -4.1150  -4.1150  -4.1149
    -4.0407  -4.0406  -4.0224  -4.0224  -4.0223  -4.0223  -4.0041  -4.0040
    -4.0040  -4.0040  -3.8653  -3.8652  -3.8652  -3.8651  -3.8502  -3.8501
    -3.7839  -3.7839  -3.7839  -3.7839  -3.5446  -3.5446  -3.5445  -3.5445
    -3.4896  -3.4895  -3.4895  -3.4895  -3.4041  -3.4041  -3.4040  -3.4040
    -3.2907  -3.2907  -3.2907  -3.2907  -3.2904  -3.2903  -3.2903  -3.2902
    -3.0256  -3.0256  -3.0255  -3.0255  -3.0018  -3.0017  -3.0017  -3.0017
    -2.9269  -2.9268  -2.9238  -2.9238  -2.8761  -2.8760  -2.8760  -2.8759
    -2.6596  -2.6596  -2.6596  -2.6596  -2.5756  -2.5756  -2.5756  -2.5756
    -2.5561  -2.5561  -2.5561  -2.5561  -2.5248  -2.5248  -2.5247  -2.5247
    -2.3742  -2.3741  -2.3741  -2.3741  -2.3127  -2.3127  -2.3126  -2.3126
    -2.2820  -2.2820  -2.2820  -2.2820  -2.1589  -2.1588  -0.3624  -0.3623
    -0.3623  -0.3623   1.0966   1.0966   1.0966   1.0967   1.7864   1.7865
     1.7865   1.7866   2.9351   2.9351   3.3245   3.3246   3.3246   3.3246
     3.9526   3.9526   3.9526   3.9526   4.1123   4.1124   4.1124   4.1125
     4.8772   4.8773   5.1992   5.1993   5.1993   5.1993   5.6214   5.6215
     5.6215   5.6215   6.0101   6.0101   6.0101

     occupation numbers 
     1.0000   1.0000   1.0000   1.0000   1.0000   1.0000   1.0000   1.0000
     1.0000   1.0000   1.0000   1.0000   1.0000   1.0000   1.0000   1.0000
     1.0000   1.0000   1.0000   1.0000   1.0000   1.0000   1.0000   1.0000
     1.0000   1.0000   1.0000   1.0000   1.0000   1.0000   1.0000   1.0000
     1.0000   1.0000   1.0000   1.0000   1.0000   1.0000   1.0000   1.0000
     1.0000   1.0000   1.0000   1.0000   1.0000   1.0000   1.0000   1.0000
     1.0000   1.0000   1.0000   1.0000   1.0000   1.0000   1.0000   1.0000
     1.0000   1.0000   1.0000   1.0000   1.0000   1.0000   1.0000   1.0000
     1.0000   1.0000   1.0000   1.0000   1.0000   1.0000   1.0000   1.0000
     1.0000   1.0000   1.0000   1.0000   1.0000   1.0000   1.0000   1.0000
     1.0000   1.0000   1.0000   1.0000   1.0000   1.0000   1.0000   1.0000
     1.0000   1.0000   1.0000   1.0000   1.0000   1.0000   1.0000   1.0000
     1.0000   1.0000   1.0000   1.0000   1.0000   1.0000   1.0000   1.0000
     1.0000   1.0000   1.0000   1.0000   1.0000   1.0000   1.0000   1.0000
     1.0000   1.0000   1.0000   1.0000   1.0000   1.0000   1.0000   1.0000
     1.0000   1.0000   1.0000   1.0000   1.0000   1.0000   1.0000   1.0000
     1.0000   1.0000   1.0000   1.0000   1.0000   1.0000   1.0000   1.0000
     1.0000   1.0000   1.0000   1.0000   1.0000   1.0000   1.0000   1.0000
     1.0000   1.0000   1.0000   1.0000   1.0000   1.0000   1.0000   1.0000
     1.0000   1.0000   1.0000   1.0000   1.0000   1.0000   1.0000   1.0000
     1.0000   1.0000   1.0000   1.0000   1.0000   1.0000   1.0000   1.0000
     1.0000   1.0000   0.0000   0.0000   0.0000   0.0000   0.0000   0.0000
     0.0000   0.0000   0.0000   0.0000   0.0000   0.0000   0.0000   0.0000
     0.0000   0.0000   0.0000   0.0000   0.0000   0.0000   0.0000   0.0000
     0.0000   0.0000   0.0000   0.0000   0.0000   0.0000   0.0000   0.0000
     0.0000   0.0000   0.0000   0.0000   0.0000

     the Fermi energy is     0.5080 ev

!    total energy              =   -5320.16301726 Ry
     estimated scf accuracy    <       0.00000029 Ry
     smearing contrib. (-TS)   =      -0.00090149 Ry
     internal energy E=F+TS    =   -5320.16211577 Ry

     The total energy is F=E-TS. E is the sum of the following terms:
     one-electron contribution =  -12132.72342583 Ry
     hartree contribution      =    6037.91508882 Ry
     xc contribution           =    -520.19201596 Ry
     ewald contribution        =    1294.83823720 Ry

     convergence has been achieved in  10 iterations

     negative rho (up, down):  5.783E-03 0.000E+00

     Forces acting on atoms (cartesian axes, Ry/au):

     atom    1 type  1   force =     0.00000000    0.00000000    0.02751819
     atom    2 type  1   force =    -0.00000671    0.00000373   -0.02751746
     atom    3 type  1   force =     0.00000000    0.00000468    0.02751923
     atom    4 type  1   force =    -0.00000880    0.00000000   -0.02751738
     atom    5 type  1   force =     0.00000000   -0.00000468    0.02751923
     atom    6 type  1   force =    -0.00000671   -0.00000373   -0.02751746
     atom    7 type  1   force =    -0.00000404    0.00000000    0.02751281
     atom    8 type  1   force =     0.00000000    0.00000098   -0.02751146
     atom    9 type  1   force =    -0.00000574    0.00000116    0.02751409
     atom   10 type  1   force =     0.00000000    0.00000000   -0.02751113
     atom   11 type  1   force =    -0.00000574   -0.00000116    0.02751409
     atom   12 type  1   force =     0.00000000   -0.00000098   -0.02751146
     atom   13 type  1   force =     0.00000404    0.00000000    0.02751281
     atom   14 type  1   force =     0.00000671    0.00000373   -0.02751746
     atom   15 type  1   force =     0.00000574    0.00000116    0.02751409
     atom   16 type  1   force =     0.00000880    0.00000000   -0.02751738
     atom   17 type  1   force =     0.00000574   -0.00000116    0.02751409
     atom   18 type  1   force =     0.00000671   -0.00000373   -0.02751746
     The non-local contrib.  to forces
     atom    1 type  1   force =     0.00000000    0.00000000   -0.31395556
     atom    2 type  1   force =    -0.00000657    0.00000013    0.31392964
     atom    3 type  1   force =     0.00000000    0.00000057   -0.31395580
     atom    4 type  1   force =    -0.00000656    0.00000000    0.31392963
     atom    5 type  1   force =     0.00000000   -0.00000057   -0.31395580
     atom    6 type  1   force =    -0.00000657   -0.00000013    0.31392964
     atom    7 type  1   force =    -0.00000640    0.00000000   -0.31395103
     atom    8 type  1   force =     0.00000000   -0.00000047    0.31392860
     atom    9 type  1   force =    -0.00000645    0.00000011   -0.31395101
     atom   10 type  1   force =     0.00000000    0.00000000    0.31392837
     atom   11 type  1   force =    -0.00000645   -0.00000011   -0.31395101
     atom   12 type  1   force =     0.00000000    0.00000047    0.31392860
     atom   13 type  1   force =     0.00000640    0.00000000   -0.31395103
     atom   14 type  1   force =     0.00000657    0.00000013    0.31392964
     atom   15 type  1   force =     0.00000645    0.00000011   -0.31395101
     atom   16 type  1   force =     0.00000656    0.00000000    0.31392963
     atom   17 type  1   force =     0.00000645   -0.00000011   -0.31395101
     atom   18 type  1   force =     0.00000657   -0.00000013    0.31392964
     The ionic contribution  to forces
     atom    1 type  1   force =     0.00009402   -0.00009267  -58.21168234
     atom    2 type  1   force =     0.00006246   -0.00009960   58.21165795
     atom    3 type  1   force =     0.00009402   -0.00001823  -58.21172911
     atom    4 type  1   force =     0.00006246    0.00001823   58.21165795
     atom    5 type  1   force =     0.00009402    0.00009960  -58.21172911
     atom    6 type  1   force =     0.00006246    0.00009267   58.21161119
     atom    7 type  1   force =     0.00001549   -0.00009267  -58.21161119
     atom    8 type  1   force =    -0.00001549   -0.00009960   58.21165795
     atom    9 type  1   force =     0.00001549   -0.00001823  -58.21165795
     atom   10 type  1   force =    -0.00001549    0.00001823   58.21165795
     atom   11 type  1   force =     0.00001549    0.00009960  -58.21165795
     atom   12 type  1   force =    -0.00001549    0.00009267   58.21161119
     atom   13 type  1   force =    -0.00006246   -0.00009267  -58.21161119
     atom   14 type  1   force =    -0.00009402   -0.00009960   58.21172911
     atom   15 type  1   force =    -0.00006246   -0.00001823  -58.21165795
     atom   16 type  1   force =    -0.00009402    0.00001823   58.21172911
     atom   17 type  1   force =    -0.00006246    0.00009960  -58.21165795
     atom   18 type  1   force =    -0.00009402    0.00009267   58.21168234
     The local contribution  to forces
     atom    1 type  1   force =     0.00000000   -0.00000000   58.55104115
     atom    2 type  1   force =    -0.00084317    0.00084870  -58.55134216
     atom    3 type  1   force =     0.00000000    0.00080762   58.55107590
     atom    4 type  1   force =    -0.00083374    0.00077315  -58.55135998
     atom    5 type  1   force =     0.00000000    0.00073869   58.55107590
     atom    6 type  1   force =    -0.00084317    0.00069761  -58.55134216
     atom    7 type  1   force =    -0.00081110   -0.00000000   58.55097771
     atom    8 type  1   force =    -0.00079841    0.00086240  -58.55132775
     atom    9 type  1   force =    -0.00080288    0.00082482   58.55101600
     atom   10 type  1   force =    -0.00079841    0.00077315  -58.55135124
     atom   11 type  1   force =    -0.00080288    0.00072149   58.55101600
     atom   12 type  1   force =    -0.00079841    0.00068391  -58.55132775
     atom   13 type  1   force =    -0.00078573   -0.00000000   58.55097771
     atom   14 type  1   force =    -0.00075366    0.00084870  -58.55134216
     atom   15 type  1   force =    -0.00079395    0.00082482   58.55101600
     atom   16 type  1   force =    -0.00076308    0.00077315  -58.55135998
     atom   17 type  1   force =    -0.00079395    0.00072149   58.55101600
     atom   18 type  1   force =    -0.00075366    0.00069761  -58.55134216
     The core correction contribution to forces
     atom    1 type  1   force =     0.00000000   -0.00000000    0.00174541
     atom    2 type  1   force =    -0.00000050    0.00000051   -0.00174405
     atom    3 type  1   force =     0.00000000    0.00000051    0.00174541
     atom    4 type  1   force =    -0.00000051    0.00000050   -0.00174404
     atom    5 type  1   force =     0.00000000    0.00000049    0.00174541
     atom    6 type  1   force =    -0.00000050    0.00000049   -0.00174405
     atom    7 type  1   force =    -0.00000049   -0.00000000    0.00174544
     atom    8 type  1   force =    -0.00000050    0.00000051   -0.00174405
     atom    9 type  1   force =    -0.00000050    0.00000050    0.00174545
     atom   10 type  1   force =    -0.00000050    0.00000050   -0.00174404
     atom   11 type  1   force =    -0.00000050    0.00000050    0.00174545
     atom   12 type  1   force =    -0.00000050    0.00000049   -0.00174405
     atom   13 type  1   force =    -0.00000050   -0.00000000    0.00174544
     atom   14 type  1   force =    -0.00000049    0.00000051   -0.00174405
     atom   15 type  1   force =    -0.00000049    0.00000050    0.00174545
     atom   16 type  1   force =    -0.00000048    0.00000050   -0.00174404
     atom   17 type  1   force =    -0.00000049    0.00000050    0.00174545
     atom   18 type  1   force =    -0.00000049    0.00000049   -0.00174405
     The Hubbard contrib.    to forces
     atom    1 type  1   force =     0.00000000    0.00000000    0.00000000
     atom    2 type  1   force =     0.00000000    0.00000000    0.00000000
     atom    3 type  1   force =     0.00000000    0.00000000    0.00000000
     atom    4 type  1   force =     0.00000000    0.00000000    0.00000000
     atom    5 type  1   force =     0.00000000    0.00000000    0.00000000
     atom    6 type  1   force =     0.00000000    0.00000000    0.00000000
     atom    7 type  1   force =     0.00000000    0.00000000    0.00000000
     atom    8 type  1   force =     0.00000000    0.00000000    0.00000000
     atom    9 type  1   force =     0.00000000    0.00000000    0.00000000
     atom   10 type  1   force =     0.00000000    0.00000000    0.00000000
     atom   11 type  1   force =     0.00000000    0.00000000    0.00000000
     atom   12 type  1   force =     0.00000000    0.00000000    0.00000000
     atom   13 type  1   force =     0.00000000    0.00000000    0.00000000
     atom   14 type  1   force =     0.00000000    0.00000000    0.00000000
     atom   15 type  1   force =     0.00000000    0.00000000    0.00000000
     atom   16 type  1   force =     0.00000000    0.00000000    0.00000000
     atom   17 type  1   force =     0.00000000    0.00000000    0.00000000
     atom   18 type  1   force =     0.00000000    0.00000000    0.00000000
     The SCF correction term to forces
     atom    1 type  1   force =     0.00000006   -0.00000006    0.00038471
     atom    2 type  1   force =    -0.00003395    0.00002449   -0.00001587
     atom    3 type  1   force =     0.00000006    0.00002889    0.00039800
     atom    4 type  1   force =    -0.00004547    0.00000032   -0.00002137
     atom    5 type  1   force =     0.00000006   -0.00002821    0.00039800
     atom    6 type  1   force =    -0.00003395   -0.00002387   -0.00001590
     atom    7 type  1   force =    -0.00002428   -0.00000006    0.00036706
     atom    8 type  1   force =    -0.00000034    0.00000865    0.00001235
     atom    9 type  1   force =    -0.00003414    0.00000863    0.00037679
     atom   10 type  1   force =    -0.00000034    0.00000032    0.00001300
     atom   11 type  1   force =    -0.00003414   -0.00000795    0.00037679
     atom   12 type  1   force =    -0.00000034   -0.00000803    0.00001231
     atom   13 type  1   force =     0.00002360   -0.00000006    0.00036706
     atom   14 type  1   force =     0.00003328    0.00002449   -0.00001582
     atom   15 type  1   force =     0.00003345    0.00000863    0.00037679
     atom   16 type  1   force =     0.00004479    0.00000032   -0.00002132
     atom   17 type  1   force =     0.00003345   -0.00000795    0.00037679
     atom   18 type  1   force =     0.00003328   -0.00002387   -0.00001585

     Total force =     0.116738     Total SCF correction =     0.001150


     Computing stress (Cartesian axis) and pressure


     negative rho (up, down):  5.783E-03 0.000E+00
          total   stress  (Ry/bohr**3)                   (kbar)     P=      -37.10
  -0.00026242   0.00000000   0.00000000          -38.60        0.00        0.00
   0.00000000  -0.00027214   0.00000000            0.00      -40.03        0.00
   0.00000000   0.00000000  -0.00022203            0.00        0.00      -32.66

     kinetic stress (kbar)  12305.28      0.00      0.00
                                0.00  12263.95      0.00
                                0.00      0.00  12341.50

     local   stress (kbar)-137434.26      0.00      0.01
                                0.00-146582.59     -0.00
                                0.01     -0.00 138148.43

     nonloc. stress (kbar)   1432.06      0.00      0.00
                                0.00   1434.31      0.00
                                0.00      0.00   1408.76

     hartree stress (kbar)  74108.82      0.00     -0.00
                                0.00  77973.97      0.00
                               -0.00      0.00 -59764.10

     exc-cor stress (kbar)  -2214.70      0.00      0.00
                                0.00  -2211.69     -0.00
                                0.00     -0.00  -2218.85

     corecor stress (kbar)   -300.06     -0.00     -0.00
                               -0.00   -300.03      0.00
                               -0.00      0.00   -299.96

     ewald   stress (kbar)  52064.25     -0.00     -0.01
                               -0.00  57382.04      0.00
                               -0.01      0.00 -89648.44

     hubbard stress (kbar)      0.00      0.00      0.00
                                0.00      0.00      0.00
                                0.00      0.00      0.00

     DFT-D   stress (kbar)      0.00      0.00      0.00
                                0.00      0.00      0.00
                                0.00      0.00      0.00

     XDM     stress (kbar)      0.00      0.00      0.00
                                0.00      0.00      0.00
                                0.00      0.00      0.00

     dft-nl  stress (kbar)      0.00      0.00      0.00
                                0.00      0.00      0.00
                                0.00      0.00      0.00

     TS-vdW  stress (kbar)      0.00      0.00      0.00
                                0.00      0.00      0.00
                                0.00      0.00      0.00



     BFGS Geometry Optimization
     Energy error            =      0.0E+00
     Gradient error          =      2.8E-02

     number of scf cycles    =   1
     number of bfgs steps    =   0

     energy   new            =   -5320.1630172552 Ry

     new trust radius        =       0.0275192304 bohr
     new conv_thr            =       0.0000010000 Ry


ATOMIC_POSITIONS (angstrom)
Ag            0.0000000000        0.0000000000        0.0145620004
Ag            2.0802704516        1.4709779761        1.4564143874
Ag            0.0000000000        2.9419544745        0.0145625494
Ag            2.0802693432        4.4129280000        1.4564144301
Ag            0.0000000000        5.8839015255        0.0145625494
Ag            2.0802704516        7.3548780239        1.4564143874
Ag            4.1605458605        0.0000000000        0.0145591535
Ag            6.2408220000        1.4709765179        1.4564175605
Ag            4.1605449630        2.9419526114        0.0145598320
Ag            6.2408220000        4.4129280000        1.4564177349
Ag            4.1605449630        5.8839033886        0.0145598320
Ag            6.2408220000        7.3548794821        1.4564175605
Ag            8.3210981395        0.0000000000        0.0145591535
Ag           10.4013735484        1.4709779761        1.4564143874
Ag            8.3210990370        2.9419526114        0.0145598320
Ag           10.4013746568        4.4129280000        1.4564144301
Ag            8.3210990370        5.8839033886        0.0145598320
Ag           10.4013735484        7.3548780239        1.4564143874



     Writing output data file ./surface.save/
     NEW-OLD atomic charge density approx. for the potential

     negative rho (up, down):  5.803E-03 0.000E+00

     total cpu time spent up to now is       66.4 secs

     Self-consistent Calculation

     iteration #  1     ecut=    30.00 Ry     beta= 0.30
     Davidson diagonalization with overlap
     ethr =  1.00E-06,  avg # of iterations =  5.0

     Threshold (ethr) on eigenvalues was too large:
     Diagonalizing with lowered threshold

     Davidson diagonalization with overlap
     ethr =  9.17E-08,  avg # of iterations =  1.9

     negative rho (up, down):  5.834E-03 0.000E+00

     total cpu time spent up to now is       81.4 secs

     total energy              =   -5320.17635338 Ry
     estimated scf accuracy    <       0.00031429 Ry

     iteration #  2     ecut=    30.00 Ry     beta= 0.30
     Davidson diagonalization with overlap
     ethr =  9.19E-08,  avg # of iterations =  1.0

     negative rho (up, down):  5.882E-03 0.000E+00

     total cpu time spent up to now is       85.4 secs

     total energy              =   -5320.17635001 Ry
     estimated scf accuracy    <       0.00010847 Ry

     iteration #  3     ecut=    30.00 Ry     beta= 0.30
     Davidson diagonalization with overlap
     ethr =  3.17E-08,  avg # of iterations =  1.9

     negative rho (up, down):  5.889E-03 0.000E+00

     total cpu time spent up to now is       89.9 secs

     total energy              =   -5320.17635638 Ry
     estimated scf accuracy    <       0.00001012 Ry

     iteration #  4     ecut=    30.00 Ry     beta= 0.30
     Davidson diagonalization with overlap
     ethr =  2.96E-09,  avg # of iterations =  2.0

     negative rho (up, down):  5.885E-03 0.000E+00

     total cpu time spent up to now is       94.8 secs

     total energy              =   -5320.17635759 Ry
     estimated scf accuracy    <       0.00000432 Ry

     iteration #  5     ecut=    30.00 Ry     beta= 0.30
     Davidson diagonalization with overlap
     ethr =  1.26E-09,  avg # of iterations =  1.0

     negative rho (up, down):  5.872E-03 0.000E+00

     total cpu time spent up to now is       98.9 secs

     End of self-consistent calculation

          k = 0.0000 0.0000 0.0000 ( 26735 PWs)   bands (ev):

   -90.8441 -90.8417 -90.8417 -90.8384 -90.8384 -90.8372 -90.8372 -90.8372
   -90.8372 -90.8370 -90.8369 -90.8349 -90.8349 -90.8348 -90.8348 -90.8346
   -90.8336 -90.8336 -54.3577 -54.3577 -54.3576 -54.3576 -54.3569 -54.3569
   -54.3527 -54.3527 -54.3526 -54.3526 -54.3460 -54.3460 -54.3334 -54.3319
   -54.3319 -54.3231 -54.3231 -54.3155 -54.3126 -54.3126 -54.3095 -54.3095
   -54.3095 -54.3095 -54.3088 -54.3023 -54.3023 -54.3023 -54.3023 -54.3015
   -54.3015 -54.2985 -54.2985 -54.2902 -54.2892 -54.2891 -54.2885 -54.2885
   -54.2821 -54.2816 -54.2816 -54.2816 -54.2816 -54.2809 -54.2809 -54.2793
   -54.2793 -54.2779 -54.2779 -54.2778 -54.2778 -54.2701 -54.2700 -54.2678
    -4.5596  -4.4951  -4.4931  -4.4931  -4.3662  -4.3662  -4.0459  -4.0459
    -3.9785  -3.9785  -3.9769  -3.9769  -3.9548  -3.9548  -3.9547  -3.9547
    -3.9142  -3.9142  -3.8716  -3.8716  -3.8715  -3.8715  -3.7913  -3.7559
    -3.7559  -3.7559  -3.7559  -3.7238  -3.7238  -3.7118  -3.7118  -3.7118
    -3.7118  -3.6367  -3.3258  -3.3151  -3.3151  -3.3151  -3.3151  -3.2807
    -3.2807  -3.1856  -3.1856  -3.1720  -3.1720  -3.1401  -3.1401  -3.1255
    -2.9795  -2.9795  -2.9086  -2.9086  -2.9071  -2.9071  -2.9071  -2.9071
    -2.8938  -2.8938  -2.8937  -2.8937  -2.8203  -2.7593  -2.7526  -2.7526
    -2.7526  -2.7526  -2.6998  -2.6998  -2.6935  -2.6935  -2.5694  -2.5373
    -2.5373  -2.5373  -2.5373  -2.4829  -2.4569  -2.4569  -2.4568  -2.4568
    -2.4437  -2.4437  -2.4284  -2.4283  -2.3543  -2.3543  -2.3256  -2.3256
    -2.2497  -2.2496  -2.1687  -2.1687  -2.1497  -1.4959  -1.4959  -0.2970
    -0.2970  -0.2970  -0.2969   0.3181   0.7250   0.7250   1.6587   1.6588
     2.4468   2.4468   2.5712   2.5712   2.5713   2.5713   3.2409   3.6970
     3.6970   4.3351   4.3351   4.3351   4.3351   4.9408   5.0190   5.0190
     5.0506   5.2028   5.2028   5.2555   5.6044   5.6045   6.0054   6.0054
     6.0054   6.0054   6.2055   6.2056   6.5173

     occupation numbers 
     1.0000   1.0000   1.0000   1.0000   1.0000   1.0000   1.0000   1.0000
     1.0000   1.0000   1.0000   1.0000   1.0000   1.0000   1.0000   1.0000
     1.0000   1.0000   1.0000   1.0000   1.0000   1.0000   1.0000   1.0000
     1.0000   1.0000   1.0000   1.0000   1.0000   1.0000   1.0000   1.0000
     1.0000   1.0000   1.0000   1.0000   1.0000   1.0000   1.0000   1.0000
     1.0000   1.0000   1.0000   1.0000   1.0000   1.0000   1.0000   1.0000
     1.0000   1.0000   1.0000   1.0000   1.0000   1.0000   1.0000   1.0000
     1.0000   1.0000   1.0000   1.0000   1.0000   1.0000   1.0000   1.0000
     1.0000   1.0000   1.0000   1.0000   1.0000   1.0000   1.0000   1.0000
     1.0000   1.0000   1.0000   1.0000   1.0000   1.0000   1.0000   1.0000
     1.0000   1.0000   1.0000   1.0000   1.0000   1.0000   1.0000   1.0000
     1.0000   1.0000   1.0000   1.0000   1.0000   1.0000   1.0000   1.0000
     1.0000   1.0000   1.0000   1.0000   1.0000   1.0000   1.0000   1.0000
     1.0000   1.0000   1.0000   1.0000   1.0000   1.0000   1.0000   1.0000
     1.0000   1.0000   1.0000   1.0000   1.0000   1.0000   1.0000   1.0000
     1.0000   1.0000   1.0000   1.0000   1.0000   1.0000   1.0000   1.0000
     1.0000   1.0000   1.0000   1.0000   1.0000   1.0000   1.0000   1.0000
     1.0000   1.0000   1.0000   1.0000   1.0000   1.0000   1.0000   1.0000
     1.0000   1.0000   1.0000   1.0000   1.0000   1.0000   1.0000   1.0000
     1.0000   1.0000   1.0000   1.0000   1.0000   1.0000   1.0000   1.0000
     1.0000   1.0000   1.0000   1.0000   1.0000   1.0000   1.0000   1.0000
     1.0000   1.0000   1.0000   1.0000   0.0000   0.0000   0.0000   0.0000
     0.0000   0.0000   0.0000   0.0000   0.0000   0.0000   0.0000   0.0000
     0.0000   0.0000   0.0000   0.0000   0.0000   0.0000   0.0000   0.0000
     0.0000   0.0000   0.0000   0.0000   0.0000   0.0000   0.0000   0.0000
     0.0000   0.0000   0.0000   0.0000   0.0000

          k = 0.0000 0.3536 0.0000 ( 26681 PWs)   bands (ev):

   -90.8436 -90.8413 -90.8413 -90.8405 -90.8388 -90.8387 -90.8368 -90.8367
   -90.8365 -90.8358 -90.8358 -90.8355 -90.8354 -90.8347 -90.8346 -90.8345
   -90.8339 -90.8337 -54.3684 -54.3683 -54.3668 -54.3656 -54.3655 -54.3608
   -54.3420 -54.3419 -54.3413 -54.3362 -54.3362 -54.3318 -54.3313 -54.3312
   -54.3296 -54.3232 -54.3232 -54.3202 -54.3158 -54.3158 -54.3156 -54.3136
   -54.3067 -54.3067 -54.3049 -54.3049 -54.3034 -54.3022 -54.3022 -54.2996
   -54.2982 -54.2982 -54.2950 -54.2929 -54.2929 -54.2898 -54.2890 -54.2874
   -54.2864 -54.2861 -54.2843 -54.2842 -54.2827 -54.2827 -54.2801 -54.2801
   -54.2797 -54.2797 -54.2748 -54.2732 -54.2732 -54.2698 -54.2697 -54.2684
    -4.4575  -4.3846  -4.3845  -4.3421  -4.2363  -4.2362  -4.1096  -4.1086
    -4.0994  -4.0708  -4.0708  -4.0458  -4.0237  -4.0236  -4.0081  -3.8614
    -3.8614  -3.8443  -3.8443  -3.8326  -3.8031  -3.8031  -3.7931  -3.7809
    -3.7797  -3.7797  -3.7711  -3.7014  -3.7014  -3.6963  -3.6963  -3.6542
    -3.5597  -3.5597  -3.5591  -3.3967  -3.3967  -3.3223  -3.2880  -3.2880
    -3.2673  -3.2199  -3.2199  -3.1972  -3.1972  -3.1462  -3.1462  -3.1419
    -3.1419  -3.1279  -3.1279  -3.0378  -3.0378  -2.9985  -2.9425  -2.9329
    -2.8693  -2.8500  -2.8500  -2.8071  -2.8071  -2.7489  -2.7489  -2.7032
    -2.7032  -2.7032  -2.6945  -2.6944  -2.6922  -2.6922  -2.6681  -2.6572
    -2.6175  -2.5380  -2.5380  -2.5226  -2.5226  -2.4808  -2.4497  -2.4178
    -2.4174  -2.4074  -2.4026  -2.3616  -2.3615  -2.3526  -2.3476  -2.2587
    -2.2587  -2.2259  -2.2259  -2.2045  -1.9952  -1.9952  -1.1118  -1.1118
    -0.1140   0.4693   0.8535   0.8535   0.9106   0.9106   1.5639   1.7843
     1.7843   1.8771   1.8771   3.1665   3.3234   3.3235   3.3669   3.3669
     3.3737   3.8686   3.8686   3.9477   4.3835   4.7484   4.7484   5.0753
     5.0907   5.0907   5.1423   5.1423   5.2775   5.3728   5.9098   5.9098
     5.9297   6.0963   6.1234   6.1234   6.3049

     occupation numbers 
     1.0000   1.0000   1.0000   1.0000   1.0000   1.0000   1.0000   1.0000
     1.0000   1.0000   1.0000   1.0000   1.0000   1.0000   1.0000   1.0000
     1.0000   1.0000   1.0000   1.0000   1.0000   1.0000   1.0000   1.0000
     1.0000   1.0000   1.0000   1.0000   1.0000   1.0000   1.0000   1.0000
     1.0000   1.0000   1.0000   1.0000   1.0000   1.0000   1.0000   1.0000
     1.0000   1.0000   1.0000   1.0000   1.0000   1.0000   1.0000   1.0000
     1.0000   1.0000   1.0000   1.0000   1.0000   1.0000   1.0000   1.0000
     1.0000   1.0000   1.0000   1.0000   1.0000   1.0000   1.0000   1.0000
     1.0000   1.0000   1.0000   1.0000   1.0000   1.0000   1.0000   1.0000
     1.0000   1.0000   1.0000   1.0000   1.0000   1.0000   1.0000   1.0000
     1.0000   1.0000   1.0000   1.0000   1.0000   1.0000   1.0000   1.0000
     1.0000   1.0000   1.0000   1.0000   1.0000   1.0000   1.0000   1.0000
     1.0000   1.0000   1.0000   1.0000   1.0000   1.0000   1.0000   1.0000
     1.0000   1.0000   1.0000   1.0000   1.0000   1.0000   1.0000   1.0000
     1.0000   1.0000   1.0000   1.0000   1.0000   1.0000   1.0000   1.0000
     1.0000   1.0000   1.0000   1.0000   1.0000   1.0000   1.0000   1.0000
     1.0000   1.0000   1.0000   1.0000   1.0000   1.0000   1.0000   1.0000
     1.0000   1.0000   1.0000   1.0000   1.0000   1.0000   1.0000   1.0000
     1.0000   1.0000   1.0000   1.0000   1.0000   1.0000   1.0000   1.0000
     1.0000   1.0000   1.0000   1.0000   1.0000   1.0000   1.0000   1.0000
     1.0000   1.0000   1.0000   1.0000   1.0000   1.0000   1.0000   1.0000
     1.0000   0.9790   0.0000   0.0000   0.0000   0.0000   0.0000   0.0000
     0.0000   0.0000   0.0000   0.0000   0.0000   0.0000   0.0000   0.0000
     0.0000   0.0000   0.0000   0.0000   0.0000   0.0000   0.0000   0.0000
     0.0000   0.0000   0.0000   0.0000   0.0000   0.0000   0.0000   0.0000
     0.0000   0.0000   0.0000   0.0000   0.0000

          k = 0.0000-0.7071 0.0000 ( 26726 PWs)   bands (ev):

   -90.8424 -90.8423 -90.8403 -90.8403 -90.8402 -90.8402 -90.8363 -90.8362
   -90.8362 -90.8361 -90.8354 -90.8351 -90.8349 -90.8349 -90.8348 -90.8344
   -90.8342 -90.8341 -54.3717 -54.3715 -54.3713 -54.3711 -54.3685 -54.3683
   -54.3312 -54.3312 -54.3312 -54.3312 -54.3273 -54.3272 -54.3264 -54.3264
   -54.3253 -54.3253 -54.3253 -54.3253 -54.3183 -54.3183 -54.3164 -54.3163
   -54.3163 -54.3163 -54.3017 -54.3017 -54.3016 -54.3016 -54.2972 -54.2969
   -54.2969 -54.2966 -54.2950 -54.2950 -54.2949 -54.2947 -54.2923 -54.2921
   -54.2883 -54.2882 -54.2866 -54.2864 -54.2863 -54.2861 -54.2793 -54.2793
   -54.2793 -54.2792 -54.2714 -54.2713 -54.2705 -54.2705 -54.2705 -54.2704
    -4.1953  -4.1953  -4.1507  -4.1506  -4.1159  -4.1158  -4.0972  -4.0971
    -4.0970  -4.0968  -4.0939  -4.0939  -4.0938  -4.0938  -3.9593  -3.9592
    -3.9162  -3.9162  -3.9161  -3.9161  -3.8989  -3.8988  -3.8987  -3.8985
    -3.7481  -3.7480  -3.7168  -3.7168  -3.6574  -3.6574  -3.6573  -3.6573
    -3.5197  -3.5197  -3.4245  -3.4245  -3.4245  -3.4245  -3.2854  -3.2854
    -3.2837  -3.2837  -3.2836  -3.2836  -3.2732  -3.2732  -3.2731  -3.2731
    -3.1589  -3.1589  -3.1588  -3.1588  -2.9813  -2.9812  -2.9811  -2.9810
    -2.9637  -2.9637  -2.8001  -2.7999  -2.7548  -2.7548  -2.7547  -2.7547
    -2.7178  -2.7178  -2.7178  -2.7178  -2.6563  -2.6563  -2.6563  -2.6563
    -2.6310  -2.6309  -2.5123  -2.5123  -2.4644  -2.4643  -2.4303  -2.4303
    -2.4303  -2.4303  -2.4223  -2.4223  -2.3765  -2.3764  -2.3243  -2.3242
    -2.1987  -2.1985  -2.1984  -2.1982  -1.6286  -1.6286  -1.6286  -1.6285
     0.8976   0.8976   1.2138   1.2138   1.2139   1.2139   1.5382   1.5382
     2.4055   2.4055   2.4056   2.4057   2.4697   2.4697   2.4697   2.4697
     3.7620   3.7620   4.3543   4.3543   4.3543   4.3543   5.0154   5.0157
     5.4294   5.4295   5.4296   5.4298   5.4695   5.4695   5.5116   5.5116
     5.5116   5.5116   5.7235   5.7235   5.9159

     occupation numbers 
     1.0000   1.0000   1.0000   1.0000   1.0000   1.0000   1.0000   1.0000
     1.0000   1.0000   1.0000   1.0000   1.0000   1.0000   1.0000   1.0000
     1.0000   1.0000   1.0000   1.0000   1.0000   1.0000   1.0000   1.0000
     1.0000   1.0000   1.0000   1.0000   1.0000   1.0000   1.0000   1.0000
     1.0000   1.0000   1.0000   1.0000   1.0000   1.0000   1.0000   1.0000
     1.0000   1.0000   1.0000   1.0000   1.0000   1.0000   1.0000   1.0000
     1.0000   1.0000   1.0000   1.0000   1.0000   1.0000   1.0000   1.0000
     1.0000   1.0000   1.0000   1.0000   1.0000   1.0000   1.0000   1.0000
     1.0000   1.0000   1.0000   1.0000   1.0000   1.0000   1.0000   1.0000
     1.0000   1.0000   1.0000   1.0000   1.0000   1.0000   1.0000   1.0000
     1.0000   1.0000   1.0000   1.0000   1.0000   1.0000   1.0000   1.0000
     1.0000   1.0000   1.0000   1.0000   1.0000   1.0000   1.0000   1.0000
     1.0000   1.0000   1.0000   1.0000   1.0000   1.0000   1.0000   1.0000
     1.0000   1.0000   1.0000   1.0000   1.0000   1.0000   1.0000   1.0000
     1.0000   1.0000   1.0000   1.0000   1.0000   1.0000   1.0000   1.0000
     1.0000   1.0000   1.0000   1.0000   1.0000   1.0000   1.0000   1.0000
     1.0000   1.0000   1.0000   1.0000   1.0000   1.0000   1.0000   1.0000
     1.0000   1.0000   1.0000   1.0000   1.0000   1.0000   1.0000   1.0000
     1.0000   1.0000   1.0000   1.0000   1.0000   1.0000   1.0000   1.0000
     1.0000   1.0000   1.0000   1.0000   1.0000   1.0000   1.0000   1.0000
     1.0000   1.0000   1.0000   1.0000   1.0000   1.0000   1.0000   1.0000
     0.0000   0.0000   0.0000   0.0000   0.0000   0.0000   0.0000   0.0000
     0.0000   0.0000   0.0000   0.0000   0.0000   0.0000   0.0000   0.0000
[...]
     1.0000   1.0000   1.0000   1.0000   1.0000   1.0000   1.0000   1.0000
     1.0000   1.0000   1.0000   1.0000   1.0000   1.0000   1.0000   1.0000
     1.0000   1.0000   1.0000   1.0000   1.0000   1.0000   1.0000   1.0000
     1.0000   1.0000   1.0000   1.0000   1.0000   1.0000   1.0000   1.0000
     1.0000   1.0000   1.0000   1.0000   1.0000   1.0000   1.0000   1.0000
     1.0000   1.0000   1.0000   1.0000   1.0000   1.0000   1.0000   1.0000
     1.0000   1.0000   1.0000   1.0000   1.0000   1.0000   1.0000   1.0000
     1.0000   1.0000   1.0000   1.0000   1.0000   1.0000   1.0000   1.0000
     1.0000   1.0000   1.0000   1.0000   1.0000   1.0000   1.0000   1.0000
     1.0000   1.0000   1.0000   1.0000   1.0000   1.0000   1.0000   1.0000
     1.0000   1.0000   1.0000   1.0000   1.0000   1.0000   1.0000   1.0000
     1.0000   1.0000   1.0000   1.0000   1.0000   1.0000   1.0000   1.0000
     1.0000   1.0000   1.0000   1.0000   1.0000   1.0000   1.0000   1.0000
     1.0000   1.0000   0.0000   0.0000   0.0000   0.0000   0.0000   0.0000
     0.0000   0.0000   0.0000   0.0000   0.0000   0.0000   0.0000   0.0000
     0.0000   0.0000   0.0000   0.0000   0.0000   0.0000   0.0000   0.0000
     0.0000   0.0000   0.0000   0.0000   0.0000   0.0000   0.0000   0.0000
     0.0000   0.0000   0.0000   0.0000   0.0000

     the Fermi energy is     0.7180 ev

!    total energy              =   -5320.28502571 Ry
     estimated scf accuracy    <          2.5E-09 Ry
     smearing contrib. (-TS)   =      -0.00024613 Ry
     internal energy E=F+TS    =   -5320.28477957 Ry

     The total energy is F=E-TS. E is the sum of the following terms:
     one-electron contribution =  -13085.59314646 Ry
     hartree contribution      =    6512.39115295 Ry
     xc contribution           =    -520.90802982 Ry
     ewald contribution        =    1773.82524375 Ry

     convergence has been achieved in   6 iterations

     negative rho (up, down):  7.838E-03 0.000E+00

     Forces acting on atoms (cartesian axes, Ry/au):

     atom    1 type  1   force =     0.00000000    0.00000000   -0.00015948
     atom    2 type  1   force =     0.00004819   -0.00000056    0.00013974
     atom    3 type  1   force =     0.00000000   -0.00000087   -0.00015981
     atom    4 type  1   force =     0.00004912    0.00000000    0.00013988
     atom    5 type  1   force =     0.00000000    0.00000087   -0.00015981
     atom    6 type  1   force =     0.00004819    0.00000056    0.00013974
     atom    7 type  1   force =     0.00004095    0.00000000   -0.00010355
     atom    8 type  1   force =     0.00000000    0.00000021    0.00008736
     atom    9 type  1   force =     0.00004160    0.00000018   -0.00010361
     atom   10 type  1   force =     0.00000000    0.00000000    0.00008719
     atom   11 type  1   force =     0.00004160   -0.00000018   -0.00010361
     atom   12 type  1   force =     0.00000000   -0.00000021    0.00008736
     atom   13 type  1   force =    -0.00004095    0.00000000   -0.00010355
     atom   14 type  1   force =    -0.00004819   -0.00000056    0.00013974
     atom   15 type  1   force =    -0.00004160    0.00000018   -0.00010361
     atom   16 type  1   force =    -0.00004912    0.00000000    0.00013988
     atom   17 type  1   force =    -0.00004160   -0.00000018   -0.00010361
     atom   18 type  1   force =    -0.00004819    0.00000056    0.00013974
     The non-local contrib.  to forces
     atom    1 type  1   force =     0.00000000    0.00000000   -0.29044050
     atom    2 type  1   force =    -0.00001317   -0.00000102    0.29041067
     atom    3 type  1   force =     0.00000000   -0.00000132   -0.29044156
     atom    4 type  1   force =    -0.00001230    0.00000000    0.29041224
     atom    5 type  1   force =     0.00000000    0.00000132   -0.29044156
     atom    6 type  1   force =    -0.00001317    0.00000102    0.29041067
     atom    7 type  1   force =    -0.00001431    0.00000000   -0.29032862
     atom    8 type  1   force =     0.00000000    0.00000048    0.29030837
     atom    9 type  1   force =    -0.00001363    0.00000067   -0.29032889
     atom   10 type  1   force =     0.00000000    0.00000000    0.29030919
     atom   11 type  1   force =    -0.00001363   -0.00000067   -0.29032889
     atom   12 type  1   force =     0.00000000   -0.00000048    0.29030837
     atom   13 type  1   force =     0.00001431    0.00000000   -0.29032862
     atom   14 type  1   force =     0.00001317   -0.00000102    0.29041067
     atom   15 type  1   force =     0.00001363    0.00000067   -0.29032889
     atom   16 type  1   force =     0.00001230    0.00000000    0.29041224
     atom   17 type  1   force =     0.00001363   -0.00000067   -0.29032889
     atom   18 type  1   force =     0.00001317    0.00000102    0.29041067
     The ionic contribution  to forces
     atom    1 type  1   force =     0.00012490   -0.00010216  -46.07950256
     atom    2 type  1   force =     0.01777720   -0.00020836   46.07029143
     atom    3 type  1   force =     0.00012490   -0.00024463  -46.07970455
     atom    4 type  1   force =     0.01796660    0.00002108   46.07064059
     atom    5 type  1   force =     0.00012490    0.00032601  -46.07970455
     atom    6 type  1   force =     0.01777719    0.00020805   46.07024658
     atom    7 type  1   force =     0.01658695   -0.00010214  -46.05559427
     atom    8 type  1   force =    -0.00001670    0.00002749   46.04988976
     atom    9 type  1   force =     0.01673381    0.00004787  -46.05556129
     atom   10 type  1   force =    -0.00001670    0.00002108   46.05005225
     atom   11 type  1   force =     0.01673380    0.00003351  -46.05556129
     atom   12 type  1   force =    -0.00001670   -0.00002780   46.04984494
     atom   13 type  1   force =    -0.01663392   -0.00010214  -46.05559426
     atom   14 type  1   force =    -0.01783843   -0.00020836   46.07035849
     atom   15 type  1   force =    -0.01678078    0.00004787  -46.05556128
     atom   16 type  1   force =    -0.01802782    0.00002108   46.07070766
     atom   17 type  1   force =    -0.01678078    0.00003351  -46.05556128
     atom   18 type  1   force =    -0.01783842    0.00020805   46.07031364
     The local contribution  to forces
     atom    1 type  1   force =     0.00000000   -0.00000000   46.36832033
     atom    2 type  1   force =    -0.01855028    0.00097195  -46.35907601
     atom    3 type  1   force =     0.00000000    0.00104898   46.36852303
     atom    4 type  1   force =    -0.01873945    0.00076340  -46.35944901
     atom    5 type  1   force =     0.00000000    0.00047781   46.36852303
     atom    6 type  1   force =    -0.01855028    0.00055486  -46.35907601
     atom    7 type  1   force =    -0.01736234   -0.00000000   46.34433943
     atom    8 type  1   force =    -0.00076806    0.00073561  -46.33857751
     atom    9 type  1   force =    -0.01750908    0.00075578   46.34430666
     atom   10 type  1   force =    -0.00076806    0.00076341  -46.33876342
     atom   11 type  1   force =    -0.01750908    0.00077104   46.34430666
     atom   12 type  1   force =    -0.00076806    0.00079122  -46.33857751
     atom   13 type  1   force =     0.01582622   -0.00000000   46.34433945
     atom   14 type  1   force =     0.01701414    0.00097195  -46.35907603
     atom   15 type  1   force =     0.01597296    0.00075578   46.34430668
     atom   16 type  1   force =     0.01720331    0.00076340  -46.35944903
     atom   17 type  1   force =     0.01597296    0.00077105   46.34430668
     atom   18 type  1   force =     0.01701414    0.00055486  -46.35907603
     The core correction contribution to forces
     atom    1 type  1   force =    -0.00000000   -0.00000000    0.00151622
     atom    2 type  1   force =    -0.00000036    0.00000051   -0.00152196
     atom    3 type  1   force =    -0.00000000    0.00000051    0.00151623
     atom    4 type  1   force =    -0.00000037    0.00000051   -0.00152198
     atom    5 type  1   force =     0.00000000    0.00000050    0.00151623
     atom    6 type  1   force =    -0.00000036    0.00000050   -0.00152196
     atom    7 type  1   force =    -0.00000044   -0.00000000    0.00151548
     atom    8 type  1   force =    -0.00000051    0.00000050   -0.00152128
     atom    9 type  1   force =    -0.00000044    0.00000050    0.00151548
     atom   10 type  1   force =    -0.00000051    0.00000051   -0.00152128
     atom   11 type  1   force =    -0.00000044    0.00000051    0.00151548
     atom   12 type  1   force =    -0.00000051    0.00000051   -0.00152128
     atom   13 type  1   force =    -0.00000057   -0.00000000    0.00151548
     atom   14 type  1   force =    -0.00000065    0.00000051   -0.00152196
     atom   15 type  1   force =    -0.00000057    0.00000050    0.00151548
     atom   16 type  1   force =    -0.00000064    0.00000051   -0.00152198
     atom   17 type  1   force =    -0.00000057    0.00000051    0.00151548
     atom   18 type  1   force =    -0.00000065    0.00000050   -0.00152196
     The Hubbard contrib.    to forces
     atom    1 type  1   force =     0.00000000    0.00000000    0.00000000
     atom    2 type  1   force =     0.00000000    0.00000000    0.00000000
     atom    3 type  1   force =     0.00000000    0.00000000    0.00000000
     atom    4 type  1   force =     0.00000000    0.00000000    0.00000000
     atom    5 type  1   force =     0.00000000    0.00000000    0.00000000
     atom    6 type  1   force =     0.00000000    0.00000000    0.00000000
     atom    7 type  1   force =     0.00000000    0.00000000    0.00000000
     atom    8 type  1   force =     0.00000000    0.00000000    0.00000000
     atom    9 type  1   force =     0.00000000    0.00000000    0.00000000
     atom   10 type  1   force =     0.00000000    0.00000000    0.00000000
     atom   11 type  1   force =     0.00000000    0.00000000    0.00000000
     atom   12 type  1   force =     0.00000000    0.00000000    0.00000000
     atom   13 type  1   force =     0.00000000    0.00000000    0.00000000
     atom   14 type  1   force =     0.00000000    0.00000000    0.00000000
     atom   15 type  1   force =     0.00000000    0.00000000    0.00000000
     atom   16 type  1   force =     0.00000000    0.00000000    0.00000000
     atom   17 type  1   force =     0.00000000    0.00000000    0.00000000
     atom   18 type  1   force =     0.00000000    0.00000000    0.00000000
     The SCF correction term to forces
     atom    1 type  1   force =    -0.00000000    0.00000000   -0.00005275
     atom    2 type  1   force =     0.00003561    0.00000011    0.00002474
     atom    3 type  1   force =    -0.00000000    0.00000018   -0.00005274
     atom    4 type  1   force =     0.00003546    0.00000000    0.00002473
     atom    5 type  1   force =    -0.00000000   -0.00000018   -0.00005274
     atom    6 type  1   force =     0.00003562   -0.00000011    0.00002474
     atom    7 type  1   force =     0.00003904    0.00000000   -0.00003536
     atom    8 type  1   force =    -0.00000000   -0.00000011    0.00001065
     atom    9 type  1   force =     0.00003889   -0.00000003   -0.00003536
     atom   10 type  1   force =    -0.00000000    0.00000000    0.00001066
     atom   11 type  1   force =     0.00003889    0.00000003   -0.00003536
     atom   12 type  1   force =    -0.00000000    0.00000012    0.00001065
     atom   13 type  1   force =    -0.00003905    0.00000000   -0.00003536
     atom   14 type  1   force =    -0.00003562    0.00000011    0.00002474
     atom   15 type  1   force =    -0.00003890   -0.00000003   -0.00003536
     atom   16 type  1   force =    -0.00003546    0.00000000    0.00002473
     atom   17 type  1   force =    -0.00003890    0.00000003   -0.00003536
     atom   18 type  1   force =    -0.00003562   -0.00000011    0.00002474

     Total force =     0.000553     Total SCF correction =     0.000191
     SCF correction compared to forces is large: reduce conv_thr to get better values


     Computing stress (Cartesian axis) and pressure


     negative rho (up, down):  7.838E-03 0.000E+00
          total   stress  (Ry/bohr**3)                   (kbar)     P=      -16.92
  -0.00004941   0.00000000   0.00000000           -7.27        0.00        0.00
   0.00000000  -0.00014272   0.00000000            0.00      -21.00        0.00
   0.00000000   0.00000000  -0.00015285            0.00        0.00      -22.49

     kinetic stress (kbar)  12289.32      0.00      0.00
                                0.00  12279.78      0.00
                                0.00      0.00  12392.57

     local   stress (kbar)-160470.06      0.00      0.01
                                0.00-163271.34     -0.00
                                0.01     -0.00 163290.45

     nonloc. stress (kbar)   1443.76      0.00      0.00
                                0.00   1446.00      0.00
                                0.00      0.00   1407.35

     hartree stress (kbar)  84790.47      0.00     -0.00
                                0.00  86045.92     -0.00
                               -0.00     -0.00 -71263.04

     exc-cor stress (kbar)  -2215.02      0.00      0.00
                                0.00  -2214.38     -0.00
                                0.00     -0.00  -2224.06

     corecor stress (kbar)   -300.05     -0.00     -0.00
                               -0.00   -300.03      0.00
                               -0.00      0.00   -299.90

     ewald   stress (kbar)  64454.31     -0.00     -0.01
                               -0.00  65993.05      0.00
                               -0.01      0.00-103325.87

     hubbard stress (kbar)      0.00      0.00      0.00
                                0.00      0.00      0.00
                                0.00      0.00      0.00

     DFT-D   stress (kbar)      0.00      0.00      0.00
                                0.00      0.00      0.00
                                0.00      0.00      0.00

     XDM     stress (kbar)      0.00      0.00      0.00
                                0.00      0.00      0.00
                                0.00      0.00      0.00

     dft-nl  stress (kbar)      0.00      0.00      0.00
                                0.00      0.00      0.00
                                0.00      0.00      0.00

     TS-vdW  stress (kbar)      0.00      0.00      0.00
                                0.00      0.00      0.00
                                0.00      0.00      0.00


     Energy error            =      4.4E-06
     Gradient error          =      1.6E-04

     bfgs converged in   9 scf cycles and   8 bfgs steps
     (criteria: energy <  1.0E-04 Ry, force <  1.0E-03 Ry/Bohr)

     End of BFGS Geometry Optimization

     Final energy   =   -5320.2850257089 Ry

     File ./surface.bfgs deleted, as requested
Begin final coordinates

ATOMIC_POSITIONS (angstrom)
Ag            0.0000000000        0.0000000000        0.2654115396
Ag            2.0799754559        1.4709771611        1.2054949555
Ag            0.0000000000        2.9419553668        0.2654107104
Ag            2.0799738612        4.4129280000        1.2054991621
Ag            0.0000000000        5.8839006332        0.2654107104
Ag            2.0799754559        7.3548788389        1.2054949555
Ag            4.1602749047        0.0000000000        0.2655598488
Ag            6.2408220000        1.4709741499        1.2054020629
Ag            4.1602738771        2.9419517656        0.2655610377
Ag            6.2408220000        4.4129280000        1.2054049191
Ag            4.1602738771        5.8839042344        0.2655610377
Ag            6.2408220000        7.3548818501        1.2054020629
Ag            8.3213690953        0.0000000000        0.2655598488
Ag           10.4016685441        1.4709771611        1.2054949555
Ag            8.3213701229        2.9419517656        0.2655610377
Ag           10.4016701388        4.4129280000        1.2054991621
Ag            8.3213701229        5.8839042344        0.2655610377
Ag           10.4016685441        7.3548788389        1.2054949555
End final coordinates



     Writing output data file ./surface.save/

     init_run     :      2.28s CPU      2.42s WALL (       1 calls)
     electrons    :    359.13s CPU    367.72s WALL (       9 calls)
     update_pot   :      1.85s CPU      1.87s WALL (       8 calls)
     forces       :      9.18s CPU      9.53s WALL (       9 calls)
     stress       :     26.26s CPU     26.70s WALL (       9 calls)

     Called by init_run:
     wfcinit      :      1.66s CPU      1.71s WALL (       1 calls)
     wfcinit:atom :      0.01s CPU      0.01s WALL (       9 calls)
     wfcinit:wfcr :      1.58s CPU      1.62s WALL (       9 calls)
     potinit      :      0.10s CPU      0.10s WALL (       1 calls)
     hinit0       :      0.16s CPU      0.19s WALL (       1 calls)

     Called by electrons:
     c_bands      :    313.87s CPU    317.55s WALL (      65 calls)
     sum_band     :     39.19s CPU     41.77s WALL (      65 calls)
     v_of_rho     :      2.12s CPU      2.21s WALL (      71 calls)
     v_h          :      0.15s CPU      0.16s WALL (      71 calls)
     v_xc         :      2.47s CPU      2.58s WALL (      89 calls)
     newd         :      4.08s CPU      5.68s WALL (      71 calls)
     mix_rho      :      0.17s CPU      0.18s WALL (      65 calls)

     Called by c_bands:
     init_us_2    :      2.09s CPU      2.13s WALL (    1341 calls)
     cegterg      :    309.08s CPU    312.62s WALL (     585 calls)

     Called by sum_band:
     sum_band:wei :      0.04s CPU      0.05s WALL (      65 calls)
     sum_band:loo :     33.44s CPU     33.97s WALL (      65 calls)
     sum_band:buf :      0.88s CPU      0.91s WALL (     585 calls)
     sum_band:ini :      1.04s CPU      1.05s WALL (     585 calls)
     sum_band:cal :      8.44s CPU      8.50s WALL (     585 calls)
     sum_band:bec :      0.29s CPU      0.30s WALL (     585 calls)
     addusdens    :      4.60s CPU      6.62s WALL (      65 calls)
     addusd:skk   :      0.14s CPU      0.15s WALL (      65 calls)
     addusd:dgemm :      2.42s CPU      4.41s WALL (      65 calls)
     addusd:qvan2 :      1.66s CPU      1.67s WALL (      65 calls)

     Called by *egterg:
     cdiaghg      :     48.48s CPU     48.88s WALL (    2059 calls)
     cegterg:over :     29.01s CPU     29.27s WALL (    1573 calls)
     cegterg:upda :     15.55s CPU     15.68s WALL (    1573 calls)
     cegterg:last :     38.37s CPU     38.67s WALL (    1243 calls)
     cdiaghg:chol :      2.08s CPU      2.12s WALL (    2059 calls)
     cdiaghg:inve :      2.20s CPU      2.23s WALL (    2059 calls)
     cdiaghg:para :      4.47s CPU      4.51s WALL (    4118 calls)
     h_psi        :    154.62s CPU    156.90s WALL (    2167 calls)
     s_psi        :     13.06s CPU     13.16s WALL (    2167 calls)
     g_psi        :      0.32s CPU      0.33s WALL (    1573 calls)

     Called by h_psi:
     h_psi:calbec :     22.37s CPU     22.56s WALL (    2167 calls)
     vloc_psi     :    118.45s CPU    120.42s WALL (    2167 calls)
     add_vuspsi   :     12.65s CPU     12.76s WALL (    2167 calls)

     General routines
     calbec       :     36.88s CPU     37.18s WALL (    3157 calls)
     fft          :      1.54s CPU      1.59s WALL (    1141 calls)
     ffts         :      0.07s CPU      0.07s WALL (     136 calls)
     fftw         :    133.67s CPU    135.90s WALL (  728631 calls)
     interpolate  :      0.13s CPU      0.13s WALL (      71 calls)

     Parallel routines
     fft_scatt_xy :      8.27s CPU      8.41s WALL (  729908 calls)
     fft_scatt_yz :     63.48s CPU     64.67s WALL (  729908 calls)

     PWSCF        :   6m40.55s CPU   6m53.21s WALL


   This run was terminated on:  19: 9:53   6Dec2021            

=------------------------------------------------------------------------------=
   JOB DONE.
=------------------------------------------------------------------------------=
