
     Program PWSCF v.6.7MaX starts on  6Dec2021 at  0:25:25 

     This program is part of the open-source Quantum ESPRESSO suite
     for quantum simulation of materials; please cite
         "P. Giannozzi et al., J. Phys.:Condens. Matter 21 395502 (2009);
         "P. Giannozzi et al., J. Phys.:Condens. Matter 29 465901 (2017);
          URL http://www.quantum-espresso.org", 
     in publications or presentations arising from this work. More details at
     http://www.quantum-espresso.org/quote

     Parallel version (MPI), running on    32 processors

     MPI processes distributed on     1 nodes
     R & G space division:  proc/nbgrp/npool/nimage =      32
     Reading input from ag_surface.100.k.qe.6_6_1.in

     Current dimensions of program PWSCF are:
     Max number of different atomic species (ntypx) = 10
     Max number of k-points (npk) =  40000
     Max angular momentum in pseudopotentials (lmaxx) =  3

     Subspace diagonalization in iterative solution of the eigenvalue problem:
     one sub-group per band group will be used
     scalapack distributed-memory algorithm (size of sub-group:  5*  5 procs)

     Found symmetry operation: I + (  0.2500  0.2500  0.0000)
     This is a supercell, fractional translations are disabled

     Parallelization info
     --------------------
     sticks:   dense  smooth     PW     G-vecs:    dense   smooth      PW
     Min         184      73     20                18142     4583     666
     Max         185      74     21                18149     4592     675
     Sum        5909    2361    657               580679   146829   21417



     bravais-lattice index     =            8
     lattice parameter (alat)  =      15.7246  a.u.
     unit-cell volume          =    6616.6507 (a.u.)^3
     number of atoms/cell      =           16
     number of atomic types    =            1
     number of electrons       =       304.00
     number of Kohn-Sham states=          182
     kinetic-energy cutoff     =      30.0000  Ry
     charge density cutoff     =     300.0000  Ry
     scf convergence threshold =      1.0E-06
     mixing beta               =       0.3000
     number of iterations used =            8  plain     mixing
     energy convergence thresh.=      1.0E-04
     force convergence thresh. =      1.0E-03
     Exchange-correlation=  SLA  PW   PBX  PBC
                           (   1   4   3   4   0   0   0)
     nstep                     =           50


     celldm(1)=  15.724600  celldm(2)=   1.000000  celldm(3)=   1.701764
     celldm(4)=   0.000000  celldm(5)=   0.000000  celldm(6)=   0.000000

     crystal axes: (cart. coord. in units of alat)
               a(1) = (   1.000000   0.000000   0.000000 )  
               a(2) = (   0.000000   1.000000   0.000000 )  
               a(3) = (   0.000000   0.000000   1.701764 )  

     reciprocal axes: (cart. coord. in units 2 pi/alat)
               b(1) = (  1.000000  0.000000  0.000000 )  
               b(2) = (  0.000000  1.000000  0.000000 )  
               b(3) = (  0.000000  0.000000  0.587625 )  


     PseudoPot. # 1 for Ag read from file:
     /expanse/lustre/projects/csd622/tpascal/nano110/qe/pseudo/ag_pbe_v1.4.uspp.F.UPF
     MD5 check sum: d66d668201baa78d5eb5b04ef7011058
     Pseudo is Ultrasoft + core correction, Zval = 19.0
     Generated by new atomic code, or converted to UPF format
     Using radial grid of  887 points,  6 beta functions with: 
                l(1) =   0
                l(2) =   0
                l(3) =   1
                l(4) =   1
                l(5) =   2
                l(6) =   2
     Q(r) pseudized with  6 coefficients,  rinner =    1.300   1.300   1.300
                                                       1.300   1.300

     atomic species   valence    mass     pseudopotential
        Ag            19.00   107.86820     Ag( 1.00)

      8 Sym. Ops. (no inversion) found


                                    s                        frac. trans.

      isym =  1     identity                                     

 cryst.   s( 1) = (     1          0          0      )
                  (     0          1          0      )
                  (     0          0          1      )

 cart.    s( 1) = (  1.0000000  0.0000000  0.0000000 )
                  (  0.0000000  1.0000000  0.0000000 )
                  (  0.0000000  0.0000000  1.0000000 )


      isym =  2     180 deg rotation - cart. axis [0,0,1]        

 cryst.   s( 2) = (    -1          0          0      )
                  (     0         -1          0      )
                  (     0          0          1      )

 cart.    s( 2) = ( -1.0000000  0.0000000  0.0000000 )
                  (  0.0000000 -1.0000000  0.0000000 )
                  (  0.0000000  0.0000000  1.0000000 )


      isym =  3      90 deg rotation - cart. axis [0,0,-1]       

 cryst.   s( 3) = (     0         -1          0      )
                  (     1          0          0      )
                  (     0          0          1      )

 cart.    s( 3) = (  0.0000000  1.0000000  0.0000000 )
                  ( -1.0000000  0.0000000  0.0000000 )
                  (  0.0000000  0.0000000  1.0000000 )


      isym =  4      90 deg rotation - cart. axis [0,0,1]        

 cryst.   s( 4) = (     0          1          0      )
                  (    -1          0          0      )
                  (     0          0          1      )

 cart.    s( 4) = (  0.0000000 -1.0000000  0.0000000 )
                  (  1.0000000  0.0000000  0.0000000 )
                  (  0.0000000  0.0000000  1.0000000 )


      isym =  5     inv. 180 deg rotation - cart. axis [0,1,0]   

 cryst.   s( 5) = (     1          0          0      )
                  (     0         -1          0      )
                  (     0          0          1      )

 cart.    s( 5) = (  1.0000000  0.0000000  0.0000000 )
                  (  0.0000000 -1.0000000  0.0000000 )
                  (  0.0000000  0.0000000  1.0000000 )


      isym =  6     inv. 180 deg rotation - cart. axis [1,0,0]   

 cryst.   s( 6) = (    -1          0          0      )
                  (     0          1          0      )
                  (     0          0          1      )

 cart.    s( 6) = ( -1.0000000  0.0000000  0.0000000 )
                  (  0.0000000  1.0000000  0.0000000 )
                  (  0.0000000  0.0000000  1.0000000 )


      isym =  7     inv. 180 deg rotation - cart. axis [1,1,0]   

 cryst.   s( 7) = (     0         -1          0      )
                  (    -1          0          0      )
                  (     0          0          1      )

 cart.    s( 7) = (  0.0000000 -1.0000000  0.0000000 )
                  ( -1.0000000  0.0000000  0.0000000 )
                  (  0.0000000  0.0000000  1.0000000 )


      isym =  8     inv. 180 deg rotation - cart. axis [1,-1,0]  

 cryst.   s( 8) = (     0          1          0      )
                  (     1          0          0      )
                  (     0          0          1      )

 cart.    s( 8) = (  0.0000000  1.0000000  0.0000000 )
                  (  1.0000000  0.0000000  0.0000000 )
                  (  0.0000000  0.0000000  1.0000000 )


     point group C_4v (4mm) 
     there are  5 classes
     the character table:

       E     2C4   C2    2s_v  2s_d 
A_1    1.00  1.00  1.00  1.00  1.00
A_2    1.00  1.00  1.00 -1.00 -1.00
B_1    1.00 -1.00  1.00  1.00 -1.00
B_2    1.00 -1.00  1.00 -1.00  1.00
E      2.00  0.00 -2.00  0.00  0.00

     the symmetry operations in each class and the name of the first element:

     E        1
          identity                                               
     2C4      3    4
           90 deg rotation - cart. axis [0,0,-1]                 
     C2       2
          180 deg rotation - cart. axis [0,0,1]                  
     2s_v     5    6
          inv. 180 deg rotation - cart. axis [0,1,0]             
     2s_d     7    8
          inv. 180 deg rotation - cart. axis [1,1,0]             

   Cartesian axes

     site n.     atom                  positions (alat units)
         1           Ag  tau(   1) = (   0.0000000   0.0000000   0.0000000  )
         2           Ag  tau(   2) = (   0.0000000   0.2499999   0.2499999  )
         3           Ag  tau(   3) = (   0.2499999   0.0000000   0.2499999  )
         4           Ag  tau(   4) = (   0.2499999   0.2499999   0.0000000  )
         5           Ag  tau(   5) = (   0.0000000   0.4999998   0.0000000  )
         6           Ag  tau(   6) = (   0.0000000   0.7499996   0.2499999  )
         7           Ag  tau(   7) = (   0.2499999   0.4999998   0.2499999  )
         8           Ag  tau(   8) = (   0.2499999   0.7499996   0.0000000  )
         9           Ag  tau(   9) = (   0.4999998   0.0000000   0.0000000  )
        10           Ag  tau(  10) = (   0.4999998   0.2499999   0.2499999  )
        11           Ag  tau(  11) = (   0.7499996   0.0000000   0.2499999  )
        12           Ag  tau(  12) = (   0.7499996   0.2499999   0.0000000  )
        13           Ag  tau(  13) = (   0.4999998   0.4999998   0.0000000  )
        14           Ag  tau(  14) = (   0.4999998   0.7499996   0.2499999  )
        15           Ag  tau(  15) = (   0.7499996   0.4999998   0.2499999  )
        16           Ag  tau(  16) = (   0.7499996   0.7499996   0.0000000  )

   Crystallographic axes

     site n.     atom                  positions (cryst. coord.)
         1           Ag  tau(   1) = (  0.0000000  0.0000000  0.0000000  )
         2           Ag  tau(   2) = (  0.0000000  0.2499999  0.1469063  )
         3           Ag  tau(   3) = (  0.2499999  0.0000000  0.1469063  )
         4           Ag  tau(   4) = (  0.2499999  0.2499999  0.0000000  )
         5           Ag  tau(   5) = (  0.0000000  0.4999998  0.0000000  )
         6           Ag  tau(   6) = (  0.0000000  0.7499996  0.1469063  )
         7           Ag  tau(   7) = (  0.2499999  0.4999998  0.1469063  )
         8           Ag  tau(   8) = (  0.2499999  0.7499996  0.0000000  )
         9           Ag  tau(   9) = (  0.4999998  0.0000000  0.0000000  )
        10           Ag  tau(  10) = (  0.4999998  0.2499999  0.1469063  )
        11           Ag  tau(  11) = (  0.7499996  0.0000000  0.1469063  )
        12           Ag  tau(  12) = (  0.7499996  0.2499999  0.0000000  )
        13           Ag  tau(  13) = (  0.4999998  0.4999998  0.0000000  )
        14           Ag  tau(  14) = (  0.4999998  0.7499996  0.1469063  )
        15           Ag  tau(  15) = (  0.7499996  0.4999998  0.1469063  )
        16           Ag  tau(  16) = (  0.7499996  0.7499996  0.0000000  )

     number of k points=    10  Gaussian smearing, width (Ry)=  0.0030
                       cart. coord. in units 2pi/alat
        k(    1) = (   0.0000000   0.0000000   0.0000000), wk =   0.0555556
        k(    2) = (   0.0000000   0.1666667   0.0000000), wk =   0.2222222
        k(    3) = (   0.0000000   0.3333333   0.0000000), wk =   0.2222222
        k(    4) = (   0.0000000  -0.5000000   0.0000000), wk =   0.1111111
        k(    5) = (   0.1666667   0.1666667   0.0000000), wk =   0.2222222
        k(    6) = (   0.1666667   0.3333333   0.0000000), wk =   0.4444444
        k(    7) = (   0.1666667  -0.5000000   0.0000000), wk =   0.2222222
        k(    8) = (   0.3333333   0.3333333   0.0000000), wk =   0.2222222
        k(    9) = (   0.3333333  -0.5000000   0.0000000), wk =   0.2222222
        k(   10) = (  -0.5000000  -0.5000000   0.0000000), wk =   0.0555556

                       cryst. coord.
        k(    1) = (   0.0000000   0.0000000   0.0000000), wk =   0.0555556
        k(    2) = (   0.0000000   0.1666667   0.0000000), wk =   0.2222222
        k(    3) = (   0.0000000   0.3333333   0.0000000), wk =   0.2222222
        k(    4) = (   0.0000000  -0.5000000   0.0000000), wk =   0.1111111
        k(    5) = (   0.1666667   0.1666667   0.0000000), wk =   0.2222222
        k(    6) = (   0.1666667   0.3333333   0.0000000), wk =   0.4444444
        k(    7) = (   0.1666667  -0.5000000   0.0000000), wk =   0.2222222
        k(    8) = (   0.3333333   0.3333333   0.0000000), wk =   0.2222222
        k(    9) = (   0.3333333  -0.5000000   0.0000000), wk =   0.2222222
        k(   10) = (  -0.5000000  -0.5000000   0.0000000), wk =   0.0555556

     Dense  grid:   580679 G-vectors     FFT dimensions: (  90,  90, 150)

     Smooth grid:   146829 G-vectors     FFT dimensions: (  60,  60,  96)

     Dynamical RAM for                 wfc:       1.59 MB

     Dynamical RAM for     wfc (w. buffer):      17.50 MB

     Dynamical RAM for           str. fact:       0.28 MB

     Dynamical RAM for           local pot:       0.00 MB

     Dynamical RAM for          nlocal pot:       2.52 MB

     Dynamical RAM for                qrad:       1.39 MB

     Dynamical RAM for          rho,v,vnew:       1.76 MB

     Dynamical RAM for               rhoin:       0.59 MB

     Dynamical RAM for            rho*nmix:       4.43 MB

     Dynamical RAM for           G-vectors:       1.07 MB

     Dynamical RAM for          h,s,v(r/c):       0.24 MB

     Dynamical RAM for          <psi|beta>:       0.80 MB

     Dynamical RAM for                 psi:       3.18 MB

     Dynamical RAM for                hpsi:       3.18 MB

     Dynamical RAM for                spsi:       3.18 MB

     Dynamical RAM for      wfcinit/wfcrot:       4.63 MB

     Dynamical RAM for           addusdens:      55.92 MB

     Dynamical RAM for          addusforce:      64.43 MB

     Dynamical RAM for         addusstress:      55.65 MB

     Estimated static dynamical RAM per process >      31.63 MB

     Estimated max dynamical RAM per process >      96.07 MB

     Estimated total dynamical RAM >       3.00 GB

     Initial potential from superposition of free atoms

     starting charge  295.99924, renormalised to  304.00000

     negative rho (up, down):  5.356E-03 0.000E+00
     Starting wfcs are  208 randomized atomic wfcs

     total cpu time spent up to now is        2.3 secs

     Self-consistent Calculation

     iteration #  1     ecut=    30.00 Ry     beta= 0.30
     Davidson diagonalization with overlap
     ethr =  1.00E-02,  avg # of iterations =  7.6

     negative rho (up, down):  1.351E-04 0.000E+00

     total cpu time spent up to now is        9.6 secs

     total energy              =   -4722.91498185 Ry
     estimated scf accuracy    <      27.59467709 Ry

     iteration #  2     ecut=    30.00 Ry     beta= 0.30
     Davidson diagonalization with overlap
     ethr =  9.08E-03,  avg # of iterations =  2.0

     negative rho (up, down):  3.903E-04 0.000E+00

     total cpu time spent up to now is       14.4 secs

     total energy              =   -4729.09834760 Ry
     estimated scf accuracy    <       1.52069237 Ry

     iteration #  3     ecut=    30.00 Ry     beta= 0.30
     Davidson diagonalization with overlap
     ethr =  5.00E-04,  avg # of iterations =  3.4

     negative rho (up, down):  9.435E-04 0.000E+00

     total cpu time spent up to now is       19.2 secs

     total energy              =   -4729.28473585 Ry
     estimated scf accuracy    <       0.06579645 Ry

     iteration #  4     ecut=    30.00 Ry     beta= 0.30
     Davidson diagonalization with overlap
     ethr =  2.16E-05,  avg # of iterations =  8.4

     negative rho (up, down):  4.239E-03 0.000E+00

     total cpu time spent up to now is       25.8 secs

     total energy              =   -4729.29051234 Ry
     estimated scf accuracy    <       0.01257378 Ry

     iteration #  5     ecut=    30.00 Ry     beta= 0.30
     Davidson diagonalization with overlap
     ethr =  4.14E-06,  avg # of iterations =  7.1

     negative rho (up, down):  3.931E-03 0.000E+00

     total cpu time spent up to now is       31.4 secs

     total energy              =   -4729.29139863 Ry
     estimated scf accuracy    <       0.00030450 Ry

     iteration #  6     ecut=    30.00 Ry     beta= 0.30
     Davidson diagonalization with overlap
     ethr =  1.00E-07,  avg # of iterations =  2.0

     negative rho (up, down):  4.340E-03 0.000E+00

     total cpu time spent up to now is       36.0 secs

     total energy              =   -4729.29142681 Ry
     estimated scf accuracy    <       0.00006215 Ry

     iteration #  7     ecut=    30.00 Ry     beta= 0.30
     Davidson diagonalization with overlap
     ethr =  2.04E-08,  avg # of iterations =  2.0

     negative rho (up, down):  4.402E-03 0.000E+00

     total cpu time spent up to now is       40.9 secs

     total energy              =   -4729.29143773 Ry
     estimated scf accuracy    <       0.00001794 Ry

     iteration #  8     ecut=    30.00 Ry     beta= 0.30
     Davidson diagonalization with overlap
     ethr =  5.90E-09,  avg # of iterations =  3.5

     negative rho (up, down):  4.414E-03 0.000E+00

     total cpu time spent up to now is       45.2 secs

     total energy              =   -4729.29143883 Ry
     estimated scf accuracy    <       0.00000442 Ry

     iteration #  9     ecut=    30.00 Ry     beta= 0.30
     Davidson diagonalization with overlap
     ethr =  1.45E-09,  avg # of iterations =  2.0

     negative rho (up, down):  4.465E-03 0.000E+00

     total cpu time spent up to now is       49.5 secs

     End of self-consistent calculation

          k = 0.0000 0.0000 0.0000 ( 18383 PWs)   bands (ev):

   -89.9354 -89.9289 -89.9289 -89.9289 -89.9289 -89.9267 -89.9266 -89.9266
   -89.9266 -89.9266 -89.9245 -89.9244 -89.9244 -89.9244 -89.9223 -89.9222
   -53.4524 -53.4524 -53.4499 -53.4499 -53.4499 -53.4499 -53.4209 -53.4209
   -53.4209 -53.4209 -53.4188 -53.4188 -53.4188 -53.4188 -53.4163 -53.4155
   -53.4155 -53.4073 -53.4073 -53.4073 -53.4073 -53.3881 -53.3881 -53.3881
   -53.3881 -53.3849 -53.3849 -53.3817 -53.3817 -53.3816 -53.3816 -53.3734
   -53.3734 -53.3699 -53.3699 -53.3699 -53.3699 -53.3673 -53.3672 -53.3672
   -53.3672 -53.3609 -53.3609 -53.3568 -53.3568 -53.3568 -53.3568 -53.3544
    -4.2192  -3.7387  -3.7082  -3.5974  -3.5974  -3.5276  -3.5276  -3.5276
    -3.5276  -3.4002  -3.4002  -3.0986  -3.0986  -3.0986  -3.0986  -3.0940
    -3.0940  -3.0939  -3.0939  -3.0489  -2.9792  -2.9792  -2.9792  -2.9792
    -2.7733  -2.7733  -2.7733  -2.7733  -2.6450  -2.6449  -2.6449  -2.6449
    -2.3738  -2.3738  -2.3738  -2.3738  -2.3100  -2.3100  -2.3100  -2.3100
    -2.2446  -2.2446  -2.2446  -2.2446  -2.2395  -2.2395  -2.2240  -2.2240
    -2.2240  -2.2240  -2.0637  -1.8500  -1.8500  -1.8500  -1.8500  -1.8033
    -1.8033  -1.8033  -1.8033  -1.7665  -1.7665  -1.6384  -1.6384  -1.6384
    -1.6384  -1.5730  -1.4972  -1.4972  -1.3990  -1.3990  -1.3990  -1.3990
    -1.3964  -1.3964  -1.3964  -1.3964  -1.2945  -1.2945  -1.2211  -0.8459
    -0.8459  -0.5770  -0.5770  -0.5769  -0.5769   0.1905   1.8979   1.8980
     1.8980   1.8980   2.5306   2.5306   2.5306   2.5306   3.0477   4.8019
     4.8019   4.8019   4.8020   5.1517   5.1517   5.7266   5.9304   5.9304
     5.9305   5.9305   6.1347   8.0161   8.0161   8.0163   8.0163   8.1653
     8.1653   8.1653   8.1654   8.6674   8.6675   8.6679

     occupation numbers 
     1.0000   1.0000   1.0000   1.0000   1.0000   1.0000   1.0000   1.0000
     1.0000   1.0000   1.0000   1.0000   1.0000   1.0000   1.0000   1.0000
     1.0000   1.0000   1.0000   1.0000   1.0000   1.0000   1.0000   1.0000
     1.0000   1.0000   1.0000   1.0000   1.0000   1.0000   1.0000   1.0000
     1.0000   1.0000   1.0000   1.0000   1.0000   1.0000   1.0000   1.0000
     1.0000   1.0000   1.0000   1.0000   1.0000   1.0000   1.0000   1.0000
     1.0000   1.0000   1.0000   1.0000   1.0000   1.0000   1.0000   1.0000
     1.0000   1.0000   1.0000   1.0000   1.0000   1.0000   1.0000   1.0000
     1.0000   1.0000   1.0000   1.0000   1.0000   1.0000   1.0000   1.0000
     1.0000   1.0000   1.0000   1.0000   1.0000   1.0000   1.0000   1.0000
     1.0000   1.0000   1.0000   1.0000   1.0000   1.0000   1.0000   1.0000
     1.0000   1.0000   1.0000   1.0000   1.0000   1.0000   1.0000   1.0000
     1.0000   1.0000   1.0000   1.0000   1.0000   1.0000   1.0000   1.0000
     1.0000   1.0000   1.0000   1.0000   1.0000   1.0000   1.0000   1.0000
     1.0000   1.0000   1.0000   1.0000   1.0000   1.0000   1.0000   1.0000
     1.0000   1.0000   1.0000   1.0000   1.0000   1.0000   1.0000   1.0000
     1.0000   1.0000   1.0000   1.0000   1.0000   1.0000   1.0000   1.0000
     1.0000   1.0000   1.0000   1.0000   1.0000   1.0000   1.0000   1.0000
     1.0000   1.0000   1.0000   1.0000   1.0000   1.0000   0.0000   0.0000
     0.0000   0.0000   0.0000   0.0000   0.0000   0.0000   0.0000   0.0000
     0.0000   0.0000   0.0000   0.0000   0.0000   0.0000   0.0000   0.0000
     0.0000   0.0000   0.0000   0.0000   0.0000   0.0000   0.0000   0.0000
     0.0000   0.0000   0.0000   0.0000   0.0000   0.0000

          k = 0.0000 0.1667 0.0000 ( 18387 PWs)   bands (ev):

   -89.9352 -89.9305 -89.9288 -89.9288 -89.9272 -89.9272 -89.9271 -89.9266
   -89.9261 -89.9261 -89.9250 -89.9245 -89.9245 -89.9239 -89.9225 -89.9223
   -53.4515 -53.4515 -53.4498 -53.4498 -53.4478 -53.4478 -53.4275 -53.4268
   -53.4246 -53.4246 -53.4237 -53.4236 -53.4160 -53.4159 -53.4156 -53.4146
   -53.4112 -53.4101 -53.4034 -53.4013 -53.4013 -53.3952 -53.3864 -53.3860
   -53.3859 -53.3859 -53.3809 -53.3807 -53.3807 -53.3804 -53.3793 -53.3739
   -53.3733 -53.3733 -53.3730 -53.3707 -53.3706 -53.3670 -53.3670 -53.3667
   -53.3667 -53.3618 -53.3617 -53.3602 -53.3572 -53.3572 -53.3540 -53.3538
    -4.1552  -3.7112  -3.6692  -3.5680  -3.5668  -3.5087  -3.5087  -3.5028
    -3.5027  -3.3864  -3.3857  -3.1741  -3.1601  -3.1434  -3.1384  -3.1383
    -3.1337  -3.1336  -3.1221  -3.0487  -3.0321  -3.0233  -2.9634  -2.9634
    -2.8801  -2.8210  -2.8210  -2.7061  -2.7061  -2.6273  -2.6273  -2.4667
    -2.4621  -2.4039  -2.4039  -2.4036  -2.3400  -2.3399  -2.3295  -2.3295
    -2.3269  -2.3015  -2.3015  -2.2554  -2.2543  -2.1591  -2.1591  -2.1331
    -2.0767  -2.0679  -2.0325  -2.0101  -1.8361  -1.7855  -1.7760  -1.7760
    -1.7672  -1.7657  -1.7657  -1.7150  -1.7083  -1.7082  -1.6966  -1.6161
    -1.5693  -1.5693  -1.5133  -1.5044  -1.4498  -1.4498  -1.4027  -1.4027
    -1.3861  -1.3839  -1.3793  -1.3793  -1.3094  -1.2994  -1.2424  -1.0388
    -0.9296  -0.8897  -0.5221  -0.5221   0.1680   0.2599   1.1280   1.1281
     1.8320   2.5842   2.5843   2.7385   2.7385   3.1516   3.3562   4.2477
     4.2478   4.5603   5.1612   5.2959   5.4826   5.4827   5.7915   5.9799
     5.9801   6.1907   6.7825   7.3277   7.5427   7.7341   7.8778   7.8779
     8.0692   8.0695   8.1099   8.1100   8.2272   8.2272

     occupation numbers 
     1.0000   1.0000   1.0000   1.0000   1.0000   1.0000   1.0000   1.0000
     1.0000   1.0000   1.0000   1.0000   1.0000   1.0000   1.0000   1.0000
     1.0000   1.0000   1.0000   1.0000   1.0000   1.0000   1.0000   1.0000
     1.0000   1.0000   1.0000   1.0000   1.0000   1.0000   1.0000   1.0000
     1.0000   1.0000   1.0000   1.0000   1.0000   1.0000   1.0000   1.0000
     1.0000   1.0000   1.0000   1.0000   1.0000   1.0000   1.0000   1.0000
     1.0000   1.0000   1.0000   1.0000   1.0000   1.0000   1.0000   1.0000
     1.0000   1.0000   1.0000   1.0000   1.0000   1.0000   1.0000   1.0000
     1.0000   1.0000   1.0000   1.0000   1.0000   1.0000   1.0000   1.0000
     1.0000   1.0000   1.0000   1.0000   1.0000   1.0000   1.0000   1.0000
     1.0000   1.0000   1.0000   1.0000   1.0000   1.0000   1.0000   1.0000
     1.0000   1.0000   1.0000   1.0000   1.0000   1.0000   1.0000   1.0000
     1.0000   1.0000   1.0000   1.0000   1.0000   1.0000   1.0000   1.0000
     1.0000   1.0000   1.0000   1.0000   1.0000   1.0000   1.0000   1.0000
     1.0000   1.0000   1.0000   1.0000   1.0000   1.0000   1.0000   1.0000
     1.0000   1.0000   1.0000   1.0000   1.0000   1.0000   1.0000   1.0000
     1.0000   1.0000   1.0000   1.0000   1.0000   1.0000   1.0000   1.0000
     1.0000   1.0000   1.0000   1.0000   1.0000   1.0000   1.0000   1.0000
     1.0000   1.0000   1.0000   1.0000   1.0000   1.0000   1.0000   1.0000
     0.0000   0.0000   0.0000   0.0000   0.0000   0.0000   0.0000   0.0000
     0.0000   0.0000   0.0000   0.0000   0.0000   0.0000   0.0000   0.0000
     0.0000   0.0000   0.0000   0.0000   0.0000   0.0000   0.0000   0.0000
     0.0000   0.0000   0.0000   0.0000   0.0000   0.0000

          k = 0.0000 0.3333 0.0000 ( 18332 PWs)   bands (ev):

   -89.9345 -89.9321 -89.9285 -89.9285 -89.9277 -89.9277 -89.9264 -89.9257
   -89.9256 -89.9255 -89.9254 -89.9247 -89.9247 -89.9234 -89.9232 -89.9225
   -53.4481 -53.4477 -53.4463 -53.4463 -53.4432 -53.4432 -53.4356 -53.4342
   -53.4333 -53.4333 -53.4296 -53.4296 -53.4154 -53.4152 -53.4146 -53.4141
   -53.4120 -53.4021 -53.4010 -53.3992 -53.3910 -53.3910 -53.3896 -53.3896
   -53.3824 -53.3824 -53.3792 -53.3767 -53.3767 -53.3765 -53.3765 -53.3755
   -53.3753 -53.3753 -53.3745 -53.3740 -53.3710 -53.3682 -53.3682 -53.3645
   -53.3642 -53.3636 -53.3632 -53.3632 -53.3584 -53.3584 -53.3531 -53.3524
    -3.9693  -3.6300  -3.5569  -3.4831  -3.4777  -3.4467  -3.4467  -3.4354
    -3.4353  -3.3673  -3.3434  -3.3422  -3.3358  -3.2555  -3.2385  -3.2385
    -3.2247  -3.2246  -3.1969  -3.1937  -3.1884  -3.0927  -2.9481  -2.9271
    -2.9271  -2.8549  -2.8549  -2.6609  -2.6200  -2.6200  -2.5727  -2.5726
    -2.4375  -2.4373  -2.4373  -2.4046  -2.4046  -2.3939  -2.3939  -2.3934
    -2.3934  -2.3526  -2.3008  -2.2911  -2.1830  -2.0826  -2.0797  -2.0324
    -2.0324  -1.9652  -1.8729  -1.8328  -1.8118  -1.7916  -1.7916  -1.7725
    -1.7695  -1.7410  -1.7056  -1.7056  -1.6246  -1.6112  -1.6111  -1.5648
    -1.5545  -1.5274  -1.5274  -1.5267  -1.5036  -1.5036  -1.4177  -1.4176
    -1.4045  -1.4045  -1.3591  -1.3348  -1.3132  -1.3128  -1.3073  -1.2539
    -1.1556  -1.0101  -0.3413  -0.3413   0.4653   0.4862   0.4862   1.1271
     1.2559   2.7438   2.7438   3.2148   3.2148   3.4234   3.4479   4.2960
     4.2960   4.3094   4.4807   5.7039   5.9858   6.0700   6.0701   6.1107
     6.1108   6.3591   6.5304   6.5305   6.5532   6.7568   7.0343   7.0866
     7.7105   7.8807   7.8807   8.2046   8.2048   8.4011

     occupation numbers 
     1.0000   1.0000   1.0000   1.0000   1.0000   1.0000   1.0000   1.0000
     1.0000   1.0000   1.0000   1.0000   1.0000   1.0000   1.0000   1.0000
     1.0000   1.0000   1.0000   1.0000   1.0000   1.0000   1.0000   1.0000
     1.0000   1.0000   1.0000   1.0000   1.0000   1.0000   1.0000   1.0000
     1.0000   1.0000   1.0000   1.0000   1.0000   1.0000   1.0000   1.0000
     1.0000   1.0000   1.0000   1.0000   1.0000   1.0000   1.0000   1.0000
     1.0000   1.0000   1.0000   1.0000   1.0000   1.0000   1.0000   1.0000
     1.0000   1.0000   1.0000   1.0000   1.0000   1.0000   1.0000   1.0000
     1.0000   1.0000   1.0000   1.0000   1.0000   1.0000   1.0000   1.0000
     1.0000   1.0000   1.0000   1.0000   1.0000   1.0000   1.0000   1.0000
     1.0000   1.0000   1.0000   1.0000   1.0000   1.0000   1.0000   1.0000
     1.0000   1.0000   1.0000   1.0000   1.0000   1.0000   1.0000   1.0000
     1.0000   1.0000   1.0000   1.0000   1.0000   1.0000   1.0000   1.0000
     1.0000   1.0000   1.0000   1.0000   1.0000   1.0000   1.0000   1.0000
     1.0000   1.0000   1.0000   1.0000   1.0000   1.0000   1.0000   1.0000
     1.0000   1.0000   1.0000   1.0000   1.0000   1.0000   1.0000   1.0000
     1.0000   1.0000   1.0000   1.0000   1.0000   1.0000   1.0000   1.0000
     1.0000   1.0000   1.0000   1.0000   1.0000   1.0000   1.0000   1.0000
     1.0000   1.0000   1.0000   1.0000   1.0000   1.0000   1.0000   1.0000
     1.0000   0.0000   0.0000   0.0000   0.0000   0.0000   0.0000   0.0000
     0.0000   0.0000   0.0000   0.0000   0.0000   0.0000   0.0000   0.0000
     0.0000   0.0000   0.0000   0.0000   0.0000   0.0000   0.0000   0.0000
     0.0000   0.0000   0.0000   0.0000   0.0000   0.0000

          k = 0.0000-0.5000 0.0000 ( 18312 PWs)   bands (ev):

   -89.9335 -89.9334 -89.9282 -89.9282 -89.9281 -89.9281 -89.9261 -89.9260
   -89.9251 -89.9251 -89.9250 -89.9250 -89.9243 -89.9241 -89.9229 -89.9228
   -53.4420 -53.4420 -53.4419 -53.4419 -53.4411 -53.4411 -53.4411 -53.4410
   -53.4367 -53.4367 -53.4366 -53.4366 -53.4153 -53.4152 -53.4144 -53.4143
   -53.4079 -53.4078 -53.3947 -53.3946 -53.3941 -53.3940 -53.3826 -53.3826
   -53.3826 -53.3826 -53.3796 -53.3796 -53.3795 -53.3795 -53.3769 -53.3768
   -53.3721 -53.3721 -53.3721 -53.3721 -53.3685 -53.3684 -53.3683 -53.3681
   -53.3673 -53.3672 -53.3605 -53.3605 -53.3604 -53.3604 -53.3521 -53.3520
    -3.6856  -3.6854  -3.4999  -3.4997  -3.3881  -3.3880  -3.3658  -3.3658
    -3.3512  -3.3512  -3.3511  -3.3511  -3.3438  -3.3436  -3.3361  -3.3361
    -3.3361  -3.3361  -3.2775  -3.2773  -3.2523  -3.2523  -2.8879  -2.8879
    -2.8878  -2.8878  -2.8254  -2.8253  -2.5289  -2.5289  -2.5288  -2.5288
    -2.4725  -2.4725  -2.4724  -2.4724  -2.4358  -2.4358  -2.4358  -2.4358
    -2.3675  -2.3674  -2.3305  -2.3304  -2.1097  -2.1096  -1.9255  -1.9254
    -1.9014  -1.9014  -1.9014  -1.9014  -1.8944  -1.8943  -1.7958  -1.7957
    -1.6564  -1.6563  -1.6175  -1.6175  -1.6174  -1.6174  -1.5657  -1.5656
    -1.4825  -1.4825  -1.4824  -1.4824  -1.4682  -1.4681  -1.4499  -1.4499
    -1.4498  -1.4498  -1.4159  -1.4158  -1.3332  -1.3331  -1.3292  -1.3292
    -1.1713  -1.1712  -0.0078  -0.0077  -0.0077  -0.0076   0.7996   0.7997
     2.2336   2.2337   2.9955   2.9956   2.9957   2.9957   3.9021   3.9022
     5.2817   5.2817   5.2817   5.2818   5.3829   5.3829   6.2341   6.2342
     6.2342   6.2343   6.3083   6.3083   6.3196   6.3197   6.6400   6.6401
     8.1654   8.1654   8.1655   8.1655   8.6948   8.6948

     occupation numbers 
     1.0000   1.0000   1.0000   1.0000   1.0000   1.0000   1.0000   1.0000
     1.0000   1.0000   1.0000   1.0000   1.0000   1.0000   1.0000   1.0000
     1.0000   1.0000   1.0000   1.0000   1.0000   1.0000   1.0000   1.0000
     1.0000   1.0000   1.0000   1.0000   1.0000   1.0000   1.0000   1.0000
     1.0000   1.0000   1.0000   1.0000   1.0000   1.0000   1.0000   1.0000
     1.0000   1.0000   1.0000   1.0000   1.0000   1.0000   1.0000   1.0000
     1.0000   1.0000   1.0000   1.0000   1.0000   1.0000   1.0000   1.0000
     1.0000   1.0000   1.0000   1.0000   1.0000   1.0000   1.0000   1.0000
     1.0000   1.0000   1.0000   1.0000   1.0000   1.0000   1.0000   1.0000
     1.0000   1.0000   1.0000   1.0000   1.0000   1.0000   1.0000   1.0000
     1.0000   1.0000   1.0000   1.0000   1.0000   1.0000   1.0000   1.0000
     1.0000   1.0000   1.0000   1.0000   1.0000   1.0000   1.0000   1.0000
     1.0000   1.0000   1.0000   1.0000   1.0000   1.0000   1.0000   1.0000
     1.0000   1.0000   1.0000   1.0000   1.0000   1.0000   1.0000   1.0000
     1.0000   1.0000   1.0000   1.0000   1.0000   1.0000   1.0000   1.0000
     1.0000   1.0000   1.0000   1.0000   1.0000   1.0000   1.0000   1.0000
     1.0000   1.0000   1.0000   1.0000   1.0000   1.0000   1.0000   1.0000
     1.0000   1.0000   1.0000   1.0000   1.0000   1.0000   1.0000   1.0000
     1.0000   1.0000   1.0000   1.0000   1.0000   1.0000   1.0000   1.0000
     0.0000   0.0000   0.0000   0.0000   0.0000   0.0000   0.0000   0.0000
     0.0000   0.0000   0.0000   0.0000   0.0000   0.0000   0.0000   0.0000
     0.0000   0.0000   0.0000   0.0000   0.0000   0.0000   0.0000   0.0000
     0.0000   0.0000   0.0000   0.0000   0.0000   0.0000

          k = 0.1667 0.1667 0.0000 ( 18383 PWs)   bands (ev):

   -89.9350 -89.9304 -89.9304 -89.9281 -89.9271 -89.9271 -89.9265 -89.9264
   -89.9263 -89.9258 -89.9250 -89.9250 -89.9240 -89.9240 -89.9226 -89.9226
   -53.4509 -53.4509 -53.4491 -53.4491 -53.4470 -53.4435 -53.4319 -53.4319
   -53.4297 -53.4297 -53.4182 -53.4182 -53.4173 -53.4173 -53.4156 -53.4149
   -53.4149 -53.4062 -53.4062 -53.3959 -53.3959 -53.3924 -53.3924 -53.3899
   -53.3843 -53.3825 -53.3825 -53.3811 -53.3811 -53.3771 -53.3751 -53.3751
   -53.3738 -53.3738 -53.3725 -53.3725 -53.3710 -53.3691 -53.3691 -53.3649
   -53.3644 -53.3641 -53.3610 -53.3605 -53.3605 -53.3545 -53.3544 -53.3539
    -4.0955  -3.7067  -3.6093  -3.5376  -3.5376  -3.5211  -3.5091  -3.4594
    -3.4594  -3.3732  -3.3732  -3.2365  -3.2365  -3.1946  -3.1946  -3.1753
    -3.1753  -3.1485  -3.1485  -3.0238  -3.0238  -2.9949  -2.9924  -2.9924
    -2.8761  -2.8604  -2.8604  -2.7413  -2.7413  -2.6542  -2.4590  -2.4590
    -2.4463  -2.4463  -2.4230  -2.4230  -2.3893  -2.3893  -2.3055  -2.2966
    -2.2913  -2.2913  -2.2633  -2.2419  -2.2419  -2.2326  -2.1167  -2.1167
    -2.0730  -1.9885  -1.9885  -1.9375  -1.9375  -1.8498  -1.7881  -1.7881
    -1.7846  -1.7846  -1.6776  -1.6776  -1.6725  -1.6725  -1.6475  -1.5846
    -1.5846  -1.5643  -1.5266  -1.5266  -1.4632  -1.4584  -1.4584  -1.3954
    -1.3954  -1.3792  -1.3792  -1.3675  -1.3248  -1.2668  -1.2605  -1.0214
    -1.0214  -0.9677  -0.9677   0.2573   0.2573   0.3131   0.3266   1.8823
     1.8823   2.0743   2.0743   3.0031   3.2522   3.4159   3.4159   4.2068
     4.6933   4.6933   4.9356   4.9356   5.2223   5.2223   5.8562   5.9024
     6.2468   6.8134   6.8134   7.0635   7.0635   7.3870   7.3870   7.6002
     7.6003   7.7861   7.9121   7.9121   8.7697   8.7700

     occupation numbers 
     1.0000   1.0000   1.0000   1.0000   1.0000   1.0000   1.0000   1.0000
     1.0000   1.0000   1.0000   1.0000   1.0000   1.0000   1.0000   1.0000
     1.0000   1.0000   1.0000   1.0000   1.0000   1.0000   1.0000   1.0000
     1.0000   1.0000   1.0000   1.0000   1.0000   1.0000   1.0000   1.0000
     1.0000   1.0000   1.0000   1.0000   1.0000   1.0000   1.0000   1.0000
     1.0000   1.0000   1.0000   1.0000   1.0000   1.0000   1.0000   1.0000
     1.0000   1.0000   1.0000   1.0000   1.0000   1.0000   1.0000   1.0000
     1.0000   1.0000   1.0000   1.0000   1.0000   1.0000   1.0000   1.0000
     1.0000   1.0000   1.0000   1.0000   1.0000   1.0000   1.0000   1.0000
     1.0000   1.0000   1.0000   1.0000   1.0000   1.0000   1.0000   1.0000
     1.0000   1.0000   1.0000   1.0000   1.0000   1.0000   1.0000   1.0000
     1.0000   1.0000   1.0000   1.0000   1.0000   1.0000   1.0000   1.0000
     1.0000   1.0000   1.0000   1.0000   1.0000   1.0000   1.0000   1.0000
     1.0000   1.0000   1.0000   1.0000   1.0000   1.0000   1.0000   1.0000
     1.0000   1.0000   1.0000   1.0000   1.0000   1.0000   1.0000   1.0000
     1.0000   1.0000   1.0000   1.0000   1.0000   1.0000   1.0000   1.0000
     1.0000   1.0000   1.0000   1.0000   1.0000   1.0000   1.0000   1.0000
     1.0000   1.0000   1.0000   1.0000   1.0000   1.0000   1.0000   1.0000
     1.0000   1.0000   1.0000   1.0000   1.0000   1.0000   1.0000   0.0000
     0.0000   0.0000   0.0000   0.0000   0.0000   0.0000   0.0000   0.0000
     0.0000   0.0000   0.0000   0.0000   0.0000   0.0000   0.0000   0.0000
     0.0000   0.0000   0.0000   0.0000   0.0000   0.0000   0.0000   0.0000
     0.0000   0.0000   0.0000   0.0000   0.0000   0.0000

          k = 0.1667 0.3333 0.0000 ( 18365 PWs)   bands (ev):

   -89.9343 -89.9319 -89.9301 -89.9289 -89.9270 -89.9266 -89.9263 -89.9257
   -89.9256 -89.9255 -89.9254 -89.9251 -89.9243 -89.9235 -89.9232 -89.9228
   -53.4479 -53.4477 -53.4471 -53.4466 -53.4423 -53.4387 -53.4382 -53.4381
   -53.4368 -53.4355 -53.4266 -53.4243 -53.4158 -53.4156 -53.4136 -53.4109
   -53.4101 -53.4101 -53.3997 -53.3964 -53.3960 -53.3913 -53.3872 -53.3860
   -53.3845 -53.3834 -53.3796 -53.3792 -53.3789 -53.3789 -53.3781 -53.3753
   -53.3748 -53.3742 -53.3726 -53.3716 -53.3702 -53.3691 -53.3688 -53.3667
   -53.3644 -53.3644 -53.3618 -53.3616 -53.3606 -53.3558 -53.3535 -53.3532
    -3.9244  -3.6537  -3.4947  -3.4761  -3.4758  -3.4547  -3.4498  -3.3965
    -3.3954  -3.3883  -3.3840  -3.3393  -3.3338  -3.3309  -3.3014  -3.2541
    -3.2227  -3.2151  -3.2144  -3.1544  -3.1160  -3.0734  -2.9577  -2.9492
    -2.9086  -2.9080  -2.7983  -2.7848  -2.6608  -2.5891  -2.5848  -2.5037
    -2.4857  -2.4690  -2.4552  -2.4211  -2.3721  -2.3701  -2.3476  -2.3076
    -2.3046  -2.2783  -2.2524  -2.2411  -2.2093  -2.1773  -2.0899  -2.0613
    -2.0174  -1.9870  -1.9380  -1.8828  -1.8798  -1.8280  -1.7873  -1.7532
    -1.7278  -1.6906  -1.6494  -1.6481  -1.6392  -1.6277  -1.6094  -1.5967
    -1.5621  -1.5466  -1.5455  -1.5320  -1.5261  -1.5029  -1.4489  -1.4237
    -1.4196  -1.3980  -1.3735  -1.3221  -1.3183  -1.3053  -1.2594  -1.2312
    -1.1680  -1.0653  -0.9595  -0.3434   0.5162   0.5256   1.2348   1.3063
     1.4475   2.0357   2.6579   3.1139   3.5400   3.5475   3.5874   4.3773
     4.4614   4.5521   5.0368   5.0658   5.3976   5.7455   5.7846   5.9111
     6.0501   6.3048   6.4153   6.6627   6.8188   6.8444   7.0912   7.3900
     7.5600   7.6894   7.7730   7.9262   8.1884   8.3050

     occupation numbers 
     1.0000   1.0000   1.0000   1.0000   1.0000   1.0000   1.0000   1.0000
     1.0000   1.0000   1.0000   1.0000   1.0000   1.0000   1.0000   1.0000
     1.0000   1.0000   1.0000   1.0000   1.0000   1.0000   1.0000   1.0000
     1.0000   1.0000   1.0000   1.0000   1.0000   1.0000   1.0000   1.0000
     1.0000   1.0000   1.0000   1.0000   1.0000   1.0000   1.0000   1.0000
     1.0000   1.0000   1.0000   1.0000   1.0000   1.0000   1.0000   1.0000
     1.0000   1.0000   1.0000   1.0000   1.0000   1.0000   1.0000   1.0000
     1.0000   1.0000   1.0000   1.0000   1.0000   1.0000   1.0000   1.0000
     1.0000   1.0000   1.0000   1.0000   1.0000   1.0000   1.0000   1.0000
     1.0000   1.0000   1.0000   1.0000   1.0000   1.0000   1.0000   1.0000
     1.0000   1.0000   1.0000   1.0000   1.0000   1.0000   1.0000   1.0000
     1.0000   1.0000   1.0000   1.0000   1.0000   1.0000   1.0000   1.0000
     1.0000   1.0000   1.0000   1.0000   1.0000   1.0000   1.0000   1.0000
     1.0000   1.0000   1.0000   1.0000   1.0000   1.0000   1.0000   1.0000
     1.0000   1.0000   1.0000   1.0000   1.0000   1.0000   1.0000   1.0000
     1.0000   1.0000   1.0000   1.0000   1.0000   1.0000   1.0000   1.0000
     1.0000   1.0000   1.0000   1.0000   1.0000   1.0000   1.0000   1.0000
     1.0000   1.0000   1.0000   1.0000   1.0000   1.0000   1.0000   1.0000
     1.0000   1.0000   1.0000   1.0000   1.0000   1.0000   1.0000   1.0000
     0.9999   0.0000   0.0000   0.0000   0.0000   0.0000   0.0000   0.0000
     0.0000   0.0000   0.0000   0.0000   0.0000   0.0000   0.0000   0.0000
     0.0000   0.0000   0.0000   0.0000   0.0000   0.0000   0.0000   0.0000
     0.0000   0.0000   0.0000   0.0000   0.0000   0.0000

          k = 0.1667-0.5000 0.0000 ( 18354 PWs)   bands (ev):

   -89.9333 -89.9332 -89.9296 -89.9295 -89.9269 -89.9267 -89.9261 -89.9260
   -89.9254 -89.9253 -89.9249 -89.9248 -89.9243 -89.9242 -89.9232 -89.9230
   -53.4444 -53.4444 -53.4438 -53.4437 -53.4428 -53.4427 -53.4415 -53.4415
   -53.4355 -53.4355 -53.4312 -53.4312 -53.4154 -53.4153 -53.4127 -53.4127
   -53.4062 -53.4061 -53.4030 -53.4030 -53.3873 -53.3873 -53.3866 -53.3866
   -53.3821 -53.3820 -53.3796 -53.3796 -53.3793 -53.3793 -53.3767 -53.3766
   -53.3765 -53.3764 -53.3735 -53.3735 -53.3681 -53.3681 -53.3662 -53.3662
   -53.3643 -53.3643 -53.3637 -53.3636 -53.3579 -53.3578 -53.3530 -53.3529
    -3.6703  -3.6702  -3.5462  -3.5461  -3.4312  -3.4311  -3.4036  -3.4035
    -3.3472  -3.3472  -3.3219  -3.3218  -3.3012  -3.3011  -3.2992  -3.2991
    -3.2984  -3.2984  -3.2704  -3.2703  -3.2394  -3.2393  -2.9268  -2.9267
    -2.8666  -2.8665  -2.7654  -2.7653  -2.7054  -2.7053  -2.5114  -2.5114
    -2.4632  -2.4632  -2.4351  -2.4351  -2.4338  -2.4338  -2.3574  -2.3574
    -2.2901  -2.2900  -2.2729  -2.2729  -2.1170  -2.1169  -2.1066  -2.1065
    -1.9246  -1.9246  -1.8911  -1.8910  -1.8230  -1.8229  -1.7604  -1.7603
    -1.7316  -1.7316  -1.6096  -1.6095  -1.6014  -1.6013  -1.5628  -1.5627
    -1.5578  -1.5578  -1.5421  -1.5421  -1.4246  -1.4245  -1.4212  -1.4212
    -1.4175  -1.4174  -1.4048  -1.4047  -1.3967  -1.3967  -1.2651  -1.2651
    -1.1921  -1.1921  -0.7768  -0.7767   0.8535   0.8536   0.9210   0.9211
     2.2970   2.2971   2.3507   2.3508   3.7805   3.7806   3.9837   3.9838
     4.5687   4.5688   5.4425   5.4426   5.6472   5.6473   5.6575   5.6576
     6.1411   6.1412   6.3717   6.3718   6.5578   6.5579   6.6964   6.6965
     7.8162   7.8162   8.0615   8.0615   8.1640   8.1640

     occupation numbers 
     1.0000   1.0000   1.0000   1.0000   1.0000   1.0000   1.0000   1.0000
     1.0000   1.0000   1.0000   1.0000   1.0000   1.0000   1.0000   1.0000
     1.0000   1.0000   1.0000   1.0000   1.0000   1.0000   1.0000   1.0000
     1.0000   1.0000   1.0000   1.0000   1.0000   1.0000   1.0000   1.0000
     1.0000   1.0000   1.0000   1.0000   1.0000   1.0000   1.0000   1.0000
     1.0000   1.0000   1.0000   1.0000   1.0000   1.0000   1.0000   1.0000
     1.0000   1.0000   1.0000   1.0000   1.0000   1.0000   1.0000   1.0000
     1.0000   1.0000   1.0000   1.0000   1.0000   1.0000   1.0000   1.0000
     1.0000   1.0000   1.0000   1.0000   1.0000   1.0000   1.0000   1.0000
     1.0000   1.0000   1.0000   1.0000   1.0000   1.0000   1.0000   1.0000
     1.0000   1.0000   1.0000   1.0000   1.0000   1.0000   1.0000   1.0000
     1.0000   1.0000   1.0000   1.0000   1.0000   1.0000   1.0000   1.0000
     1.0000   1.0000   1.0000   1.0000   1.0000   1.0000   1.0000   1.0000
     1.0000   1.0000   1.0000   1.0000   1.0000   1.0000   1.0000   1.0000
     1.0000   1.0000   1.0000   1.0000   1.0000   1.0000   1.0000   1.0000
     1.0000   1.0000   1.0000   1.0000   1.0000   1.0000   1.0000   1.0000
     1.0000   1.0000   1.0000   1.0000   1.0000   1.0000   1.0000   1.0000
     1.0000   1.0000   1.0000   1.0000   1.0000   1.0000   1.0000   1.0000
     1.0000   1.0000   1.0000   1.0000   1.0000   1.0000   1.0000   1.0000
     0.0000   0.0000   0.0000   0.0000   0.0000   0.0000   0.0000   0.0000
     0.0000   0.0000   0.0000   0.0000   0.0000   0.0000   0.0000   0.0000
     0.0000   0.0000   0.0000   0.0000   0.0000   0.0000   0.0000   0.0000
     0.0000   0.0000   0.0000   0.0000   0.0000   0.0000

          k = 0.3333 0.3333 0.0000 ( 18374 PWs)   bands (ev):

   -89.9337 -89.9315 -89.9315 -89.9299 -89.9262 -89.9257 -89.9256 -89.9256
   -89.9256 -89.9255 -89.9255 -89.9254 -89.9240 -89.9240 -89.9234 -89.9233
   -53.4470 -53.4470 -53.4466 -53.4466 -53.4431 -53.4431 -53.4404 -53.4404
   -53.4367 -53.4316 -53.4194 -53.4194 -53.4194 -53.4194 -53.4157 -53.4090
   -53.4090 -53.4035 -53.4017 -53.4017 -53.3943 -53.3943 -53.3839 -53.3839
   -53.3823 -53.3823 -53.3823 -53.3821 -53.3821 -53.3817 -53.3771 -53.3771
   -53.3751 -53.3733 -53.3724 -53.3724 -53.3701 -53.3701 -53.3657 -53.3657
   -53.3651 -53.3651 -53.3620 -53.3610 -53.3585 -53.3546 -53.3546 -53.3537
    -3.8003  -3.6428  -3.5196  -3.4946  -3.4700  -3.4700  -3.4476  -3.4476
    -3.3777  -3.3777  -3.3320  -3.3320  -3.3240  -3.2951  -3.2951  -3.2611
    -3.2611  -3.2444  -3.2444  -3.0727  -3.0727  -3.0113  -3.0113  -3.0085
    -3.0085  -2.9344  -2.7950  -2.7950  -2.7879  -2.5276  -2.4768  -2.4768
    -2.4677  -2.4677  -2.4641  -2.4641  -2.4463  -2.2535  -2.2535  -2.2509
    -2.2185  -2.1893  -2.1788  -2.1788  -2.1500  -2.1426  -2.1426  -2.1101
    -2.1042  -2.1042  -1.9579  -1.9579  -1.8346  -1.8346  -1.8340  -1.8340
    -1.8074  -1.6677  -1.6677  -1.6512  -1.6512  -1.6328  -1.6328  -1.5822
    -1.5386  -1.5386  -1.5235  -1.5235  -1.5028  -1.4921  -1.4636  -1.4636
    -1.4429  -1.4429  -1.3566  -1.3097  -1.3097  -1.2661  -1.2346  -1.2089
    -1.2089  -1.2019  -1.2019  -1.0210   0.7092   1.4621   1.4621   1.5350
     1.5350   2.1343   2.5307   2.5307   3.8063   3.8924   3.8924   4.5603
     4.5603   4.7602   4.7602   5.0388   5.0388   5.3369   5.3369   5.4998
     6.0035   6.2425   6.5841   6.8940   6.8940   7.0031   7.0031   7.2618
     7.2618   7.3279   7.3279   7.6860   7.9485   8.3313

     occupation numbers 
     1.0000   1.0000   1.0000   1.0000   1.0000   1.0000   1.0000   1.0000
     1.0000   1.0000   1.0000   1.0000   1.0000   1.0000   1.0000   1.0000
     1.0000   1.0000   1.0000   1.0000   1.0000   1.0000   1.0000   1.0000
     1.0000   1.0000   1.0000   1.0000   1.0000   1.0000   1.0000   1.0000
     1.0000   1.0000   1.0000   1.0000   1.0000   1.0000   1.0000   1.0000
     1.0000   1.0000   1.0000   1.0000   1.0000   1.0000   1.0000   1.0000
     1.0000   1.0000   1.0000   1.0000   1.0000   1.0000   1.0000   1.0000
     1.0000   1.0000   1.0000   1.0000   1.0000   1.0000   1.0000   1.0000
     1.0000   1.0000   1.0000   1.0000   1.0000   1.0000   1.0000   1.0000
     1.0000   1.0000   1.0000   1.0000   1.0000   1.0000   1.0000   1.0000
     1.0000   1.0000   1.0000   1.0000   1.0000   1.0000   1.0000   1.0000
     1.0000   1.0000   1.0000   1.0000   1.0000   1.0000   1.0000   1.0000
     1.0000   1.0000   1.0000   1.0000   1.0000   1.0000   1.0000   1.0000
     1.0000   1.0000   1.0000   1.0000   1.0000   1.0000   1.0000   1.0000
     1.0000   1.0000   1.0000   1.0000   1.0000   1.0000   1.0000   1.0000
     1.0000   1.0000   1.0000   1.0000   1.0000   1.0000   1.0000   1.0000
     1.0000   1.0000   1.0000   1.0000   1.0000   1.0000   1.0000   1.0000
     1.0000   1.0000   1.0000   1.0000   1.0000   1.0000   1.0000   1.0000
     1.0000   1.0000   1.0000   1.0000   1.0000   0.9993   0.9993   0.7508
     0.7508   0.0000   0.0000   0.0000   0.0000   0.0000   0.0000   0.0000
     0.0000   0.0000   0.0000   0.0000   0.0000   0.0000   0.0000   0.0000
     0.0000   0.0000   0.0000   0.0000   0.0000   0.0000   0.0000   0.0000
     0.0000   0.0000   0.0000   0.0000   0.0000   0.0000

          k = 0.3333-0.5000 0.0000 ( 18390 PWs)   bands (ev):

   -89.9328 -89.9327 -89.9309 -89.9308 -89.9260 -89.9259 -89.9257 -89.9256
   -89.9255 -89.9254 -89.9247 -89.9246 -89.9244 -89.9242 -89.9237 -89.9236
   -53.4461 -53.4461 -53.4456 -53.4455 -53.4446 -53.4446 -53.4445 -53.4444
   -53.4288 -53.4288 -53.4254 -53.4253 -53.4169 -53.4168 -53.4118 -53.4118
   -53.4062 -53.4061 -53.4021 -53.4020 -53.3920 -53.3920 -53.3881 -53.3881
   -53.3834 -53.3833 -53.3818 -53.3818 -53.3783 -53.3783 -53.3781 -53.3781
   -53.3744 -53.3743 -53.3738 -53.3737 -53.3692 -53.3691 -53.3675 -53.3674
   -53.3625 -53.3625 -53.3616 -53.3616 -53.3566 -53.3565 -53.3542 -53.3541
    -3.6276  -3.6275  -3.5790  -3.5790  -3.5124  -3.5123  -3.4853  -3.4853
    -3.3112  -3.3112  -3.2964  -3.2963  -3.2877  -3.2876  -3.2845  -3.2844
    -3.2089  -3.2088  -3.1851  -3.1850  -3.1502  -3.1502  -2.9553  -2.9552
    -2.9477  -2.9476  -2.9030  -2.9029  -2.6046  -2.6045  -2.4914  -2.4913
    -2.4728  -2.4728  -2.3706  -2.3705  -2.3407  -2.3407  -2.3031  -2.3031
    -2.2292  -2.2291  -2.2276  -2.2276  -2.1173  -2.1172  -2.1153  -2.1152
    -1.9610  -1.9609  -1.9326  -1.9325  -1.9321  -1.9321  -1.7831  -1.7830
    -1.7416  -1.7415  -1.6873  -1.6872  -1.6775  -1.6775  -1.6467  -1.6466
    -1.5166  -1.5166  -1.5011  -1.5010  -1.4700  -1.4700  -1.4685  -1.4685
    -1.4268  -1.4267  -1.3652  -1.3651  -1.3557  -1.3557  -1.2501  -1.2501
    -1.2340  -1.2340  -1.2112  -1.2112   1.0203   1.0204   1.7344   1.7346
     1.9812   1.9813   2.6756   2.6757   3.7193   3.7194   4.2218   4.2219
     4.4017   4.4018   4.9241   4.9242   5.0874   5.0874   5.6767   5.6767
     6.3680   6.3681   6.5614   6.5614   6.8659   6.8659   7.1065   7.1065
     7.1940   7.1941   7.3025   7.3025   7.5481   7.5482

     occupation numbers 
     1.0000   1.0000   1.0000   1.0000   1.0000   1.0000   1.0000   1.0000
     1.0000   1.0000   1.0000   1.0000   1.0000   1.0000   1.0000   1.0000
     1.0000   1.0000   1.0000   1.0000   1.0000   1.0000   1.0000   1.0000
     1.0000   1.0000   1.0000   1.0000   1.0000   1.0000   1.0000   1.0000
     1.0000   1.0000   1.0000   1.0000   1.0000   1.0000   1.0000   1.0000
     1.0000   1.0000   1.0000   1.0000   1.0000   1.0000   1.0000   1.0000
     1.0000   1.0000   1.0000   1.0000   1.0000   1.0000   1.0000   1.0000
     1.0000   1.0000   1.0000   1.0000   1.0000   1.0000   1.0000   1.0000
     1.0000   1.0000   1.0000   1.0000   1.0000   1.0000   1.0000   1.0000
     1.0000   1.0000   1.0000   1.0000   1.0000   1.0000   1.0000   1.0000
     1.0000   1.0000   1.0000   1.0000   1.0000   1.0000   1.0000   1.0000
     1.0000   1.0000   1.0000   1.0000   1.0000   1.0000   1.0000   1.0000
     1.0000   1.0000   1.0000   1.0000   1.0000   1.0000   1.0000   1.0000
     1.0000   1.0000   1.0000   1.0000   1.0000   1.0000   1.0000   1.0000
     1.0000   1.0000   1.0000   1.0000   1.0000   1.0000   1.0000   1.0000
     1.0000   1.0000   1.0000   1.0000   1.0000   1.0000   1.0000   1.0000
     1.0000   1.0000   1.0000   1.0000   1.0000   1.0000   1.0000   1.0000
     1.0000   1.0000   1.0000   1.0000   1.0000   1.0000   1.0000   1.0000
     1.0000   1.0000   1.0000   1.0000   1.0000   1.0000   0.0000   0.0000
     0.0000   0.0000   0.0000   0.0000   0.0000   0.0000   0.0000   0.0000
     0.0000   0.0000   0.0000   0.0000   0.0000   0.0000   0.0000   0.0000
     0.0000   0.0000   0.0000   0.0000   0.0000   0.0000   0.0000   0.0000
     0.0000   0.0000   0.0000   0.0000   0.0000   0.0000

          k =-0.5000-0.5000 0.0000 ( 18336 PWs)   bands (ev):

   -89.9320 -89.9319 -89.9319 -89.9318 -89.9259 -89.9258 -89.9257 -89.9256
   -89.9246 -89.9245 -89.9244 -89.9244 -89.9244 -89.9244 -89.9243 -89.9243
   -53.4456 -53.4456 -53.4456 -53.4456 -53.4455 -53.4455 -53.4455 -53.4455
   -53.4203 -53.4203 -53.4203 -53.4203 -53.4200 -53.4199 -53.4199 -53.4198
   -53.3971 -53.3971 -53.3971 -53.3971 -53.3971 -53.3971 -53.3970 -53.3970
   -53.3816 -53.3816 -53.3816 -53.3815 -53.3784 -53.3784 -53.3784 -53.3784
   -53.3711 -53.3711 -53.3710 -53.3710 -53.3710 -53.3710 -53.3709 -53.3709
   -53.3609 -53.3609 -53.3609 -53.3609 -53.3554 -53.3553 -53.3553 -53.3552
    -3.5665  -3.5664  -3.5664  -3.5663  -3.5635  -3.5634  -3.5634  -3.5633
    -3.2892  -3.2892  -3.2891  -3.2891  -3.2891  -3.2891  -3.2890  -3.2890
    -3.0768  -3.0768  -3.0767  -3.0767  -3.0767  -3.0767  -3.0766  -3.0766
    -3.0196  -3.0195  -3.0195  -3.0194  -2.4779  -2.4779  -2.4779  -2.4779
    -2.4676  -2.4676  -2.4676  -2.4676  -2.2181  -2.2181  -2.2181  -2.2181
    -2.1311  -2.1311  -2.1311  -2.1311  -2.1311  -2.1311  -2.1311  -2.1311
    -1.9880  -1.9879  -1.9879  -1.9879  -1.9840  -1.9840  -1.9840  -1.9839
    -1.7283  -1.7283  -1.7283  -1.7283  -1.7282  -1.7282  -1.7282  -1.7282
    -1.5551  -1.5550  -1.5550  -1.5550  -1.4532  -1.4531  -1.4531  -1.4531
    -1.3431  -1.3431  -1.3431  -1.3431  -1.3431  -1.3431  -1.3431  -1.3431
    -1.2332  -1.2332  -1.2332  -1.2332   1.3105   1.3107   1.3107   1.3108
     3.1530   3.1530   3.1531   3.1531   3.1532   3.1532   3.1532   3.1532
     4.5978   4.5979   4.5979   4.5980   6.0001   6.0001   6.0001   6.0001
     6.0002   6.0002   6.0003   6.0003   6.8742   6.8742   6.8742   6.8742
     7.1488   7.1488   7.1488   7.1488   8.1816   8.1816

     occupation numbers 
     1.0000   1.0000   1.0000   1.0000   1.0000   1.0000   1.0000   1.0000
     1.0000   1.0000   1.0000   1.0000   1.0000   1.0000   1.0000   1.0000
     1.0000   1.0000   1.0000   1.0000   1.0000   1.0000   1.0000   1.0000
     1.0000   1.0000   1.0000   1.0000   1.0000   1.0000   1.0000   1.0000
     1.0000   1.0000   1.0000   1.0000   1.0000   1.0000   1.0000   1.0000
     1.0000   1.0000   1.0000   1.0000   1.0000   1.0000   1.0000   1.0000
     1.0000   1.0000   1.0000   1.0000   1.0000   1.0000   1.0000   1.0000
     1.0000   1.0000   1.0000   1.0000   1.0000   1.0000   1.0000   1.0000
     1.0000   1.0000   1.0000   1.0000   1.0000   1.0000   1.0000   1.0000
     1.0000   1.0000   1.0000   1.0000   1.0000   1.0000   1.0000   1.0000
     1.0000   1.0000   1.0000   1.0000   1.0000   1.0000   1.0000   1.0000
     1.0000   1.0000   1.0000   1.0000   1.0000   1.0000   1.0000   1.0000
     1.0000   1.0000   1.0000   1.0000   1.0000   1.0000   1.0000   1.0000
     1.0000   1.0000   1.0000   1.0000   1.0000   1.0000   1.0000   1.0000
     1.0000   1.0000   1.0000   1.0000   1.0000   1.0000   1.0000   1.0000
     1.0000   1.0000   1.0000   1.0000   1.0000   1.0000   1.0000   1.0000
     1.0000   1.0000   1.0000   1.0000   1.0000   1.0000   1.0000   1.0000
     1.0000   1.0000   1.0000   1.0000   1.0000   1.0000   1.0000   1.0000
     1.0000   1.0000   1.0000   1.0000   1.0000   1.0000   1.0000   1.0000
     0.0000   0.0000   0.0000   0.0000   0.0000   0.0000   0.0000   0.0000
     0.0000   0.0000   0.0000   0.0000   0.0000   0.0000   0.0000   0.0000
     0.0000   0.0000   0.0000   0.0000   0.0000   0.0000   0.0000   0.0000
     0.0000   0.0000   0.0000   0.0000   0.0000   0.0000

     the Fermi energy is     1.5545 ev

!    total energy              =   -4729.29143978 Ry
     estimated scf accuracy    <       0.00000073 Ry
     smearing contrib. (-TS)   =      -0.00030172 Ry
     internal energy E=F+TS    =   -4729.29113806 Ry

     The total energy is F=E-TS. E is the sum of the following terms:
     one-electron contribution =  -13383.81622375 Ry
     hartree contribution      =    6676.86662659 Ry
     xc contribution           =    -462.68692686 Ry
     ewald contribution        =    2440.34538596 Ry

     convergence has been achieved in   9 iterations

     negative rho (up, down):  4.465E-03 0.000E+00

     Forces acting on atoms (cartesian axes, Ry/au):

     atom    1 type  1   force =     0.00000000    0.00000000    0.00924601
     atom    2 type  1   force =     0.00000000   -0.00000671   -0.00924947
     atom    3 type  1   force =    -0.00000671    0.00000000   -0.00924947
     atom    4 type  1   force =    -0.00000443   -0.00000443    0.00925667
     atom    5 type  1   force =     0.00000000    0.00000000    0.00923971
     atom    6 type  1   force =     0.00000000    0.00000671   -0.00924947
     atom    7 type  1   force =    -0.00000341    0.00000000   -0.00924837
     atom    8 type  1   force =    -0.00000443    0.00000443    0.00925667
     atom    9 type  1   force =     0.00000000    0.00000000    0.00923971
     atom   10 type  1   force =     0.00000000   -0.00000341   -0.00924837
     atom   11 type  1   force =     0.00000671    0.00000000   -0.00924947
     atom   12 type  1   force =     0.00000443   -0.00000443    0.00925667
     atom   13 type  1   force =     0.00000000    0.00000000    0.00923926
     atom   14 type  1   force =     0.00000000    0.00000341   -0.00924837
     atom   15 type  1   force =     0.00000341    0.00000000   -0.00924837
     atom   16 type  1   force =     0.00000443    0.00000443    0.00925667
     The non-local contrib.  to forces
     atom    1 type  1   force =     0.00000000    0.00000000   -0.20564955
     atom    2 type  1   force =     0.00000000   -0.00000047    0.20567452
     atom    3 type  1   force =    -0.00000047    0.00000000    0.20567452
     atom    4 type  1   force =    -0.00000066   -0.00000066   -0.20564320
     atom    5 type  1   force =     0.00000000    0.00000000   -0.20564547
     atom    6 type  1   force =     0.00000000    0.00000047    0.20567452
     atom    7 type  1   force =    -0.00000157    0.00000000    0.20567472
     atom    8 type  1   force =    -0.00000066    0.00000066   -0.20564320
     atom    9 type  1   force =     0.00000000    0.00000000   -0.20564547
     atom   10 type  1   force =     0.00000000   -0.00000157    0.20567472
     atom   11 type  1   force =     0.00000047    0.00000000    0.20567452
     atom   12 type  1   force =     0.00000066   -0.00000066   -0.20564320
     atom   13 type  1   force =     0.00000000    0.00000000   -0.20564550
     atom   14 type  1   force =     0.00000000    0.00000157    0.20567472
     atom   15 type  1   force =     0.00000157    0.00000000    0.20567472
     atom   16 type  1   force =     0.00000066    0.00000066   -0.20564320
     The ionic contribution  to forces
     atom    1 type  1   force =    -0.00011503   -0.00011503  -97.86675895
     atom    2 type  1   force =    -0.00011503   -0.00004478   97.86680874
     atom    3 type  1   force =    -0.00004478   -0.00011503   97.86680874
     atom    4 type  1   force =    -0.00004478   -0.00004478  -97.86685853
     atom    5 type  1   force =    -0.00011503    0.00004478  -97.86680874
     atom    6 type  1   force =    -0.00011503    0.00011503   97.86675895
     atom    7 type  1   force =    -0.00004478    0.00004478   97.86685853
     atom    8 type  1   force =    -0.00004478    0.00011503  -97.86680874
     atom    9 type  1   force =     0.00004478   -0.00011503  -97.86680874
     atom   10 type  1   force =     0.00004478   -0.00004478   97.86685853
     atom   11 type  1   force =     0.00011503   -0.00011503   97.86675895
     atom   12 type  1   force =     0.00011503   -0.00004478  -97.86680874
     atom   13 type  1   force =     0.00004478    0.00004478  -97.86685853
     atom   14 type  1   force =     0.00004478    0.00011503   97.86680874
     atom   15 type  1   force =     0.00011503    0.00004478   97.86680874
     atom   16 type  1   force =     0.00011503    0.00011503  -97.86675895
     The local contribution  to forces
     atom    1 type  1   force =    -0.00000000    0.00000000   98.07776196
     atom    2 type  1   force =     0.00000000    0.00088865  -98.07774709
     atom    3 type  1   force =     0.00088865   -0.00000000  -98.07774709
     atom    4 type  1   force =     0.00087880    0.00087880   98.07784750
     atom    5 type  1   force =    -0.00000000    0.00077694   98.07784403
     atom    6 type  1   force =    -0.00000000    0.00066524  -98.07774709
     atom    7 type  1   force =     0.00086777    0.00077694  -98.07780505
     atom    8 type  1   force =     0.00087880    0.00067509   98.07784750
     atom    9 type  1   force =     0.00077694    0.00000000   98.07784403
     atom   10 type  1   force =     0.00077694    0.00086777  -98.07780505
     atom   11 type  1   force =     0.00066524   -0.00000000  -98.07774709
     atom   12 type  1   force =     0.00067509    0.00087880   98.07784750
     atom   13 type  1   force =     0.00077694    0.00077694   98.07789419
     atom   14 type  1   force =     0.00077694    0.00068611  -98.07780505
     atom   15 type  1   force =     0.00068611    0.00077694  -98.07780505
     atom   16 type  1   force =     0.00067509    0.00067509   98.07784750
     The core correction contribution to forces
     atom    1 type  1   force =    -0.00000000   -0.00000000    0.00148756
     atom    2 type  1   force =    -0.00000000    0.00000049   -0.00148658
     atom    3 type  1   force =     0.00000049   -0.00000000   -0.00148658
     atom    4 type  1   force =     0.00000050    0.00000050    0.00148804
     atom    5 type  1   force =    -0.00000000    0.00000050    0.00148755
     atom    6 type  1   force =    -0.00000000    0.00000051   -0.00148658
     atom    7 type  1   force =     0.00000050    0.00000050   -0.00148658
     atom    8 type  1   force =     0.00000050    0.00000051    0.00148804
     atom    9 type  1   force =     0.00000050   -0.00000000    0.00148755
     atom   10 type  1   force =     0.00000050    0.00000050   -0.00148658
     atom   11 type  1   force =     0.00000051   -0.00000000   -0.00148658
     atom   12 type  1   force =     0.00000051    0.00000050    0.00148804
     atom   13 type  1   force =     0.00000050    0.00000050    0.00148757
     atom   14 type  1   force =     0.00000050    0.00000050   -0.00148658
     atom   15 type  1   force =     0.00000050    0.00000050   -0.00148658
     atom   16 type  1   force =     0.00000051    0.00000051    0.00148804
     The Hubbard contrib.    to forces
     atom    1 type  1   force =     0.00000000    0.00000000    0.00000000
     atom    2 type  1   force =     0.00000000    0.00000000    0.00000000
     atom    3 type  1   force =     0.00000000    0.00000000    0.00000000
     atom    4 type  1   force =     0.00000000    0.00000000    0.00000000
     atom    5 type  1   force =     0.00000000    0.00000000    0.00000000
     atom    6 type  1   force =     0.00000000    0.00000000    0.00000000
     atom    7 type  1   force =     0.00000000    0.00000000    0.00000000
     atom    8 type  1   force =     0.00000000    0.00000000    0.00000000
     atom    9 type  1   force =     0.00000000    0.00000000    0.00000000
     atom   10 type  1   force =     0.00000000    0.00000000    0.00000000
     atom   11 type  1   force =     0.00000000    0.00000000    0.00000000
     atom   12 type  1   force =     0.00000000    0.00000000    0.00000000
     atom   13 type  1   force =     0.00000000    0.00000000    0.00000000
     atom   14 type  1   force =     0.00000000    0.00000000    0.00000000
     atom   15 type  1   force =     0.00000000    0.00000000    0.00000000
     atom   16 type  1   force =     0.00000000    0.00000000    0.00000000
     The SCF correction term to forces
     atom    1 type  1   force =     0.00000002    0.00000002    0.00241660
     atom    2 type  1   force =     0.00000002   -0.00003813   -0.00246257
     atom    3 type  1   force =    -0.00003813    0.00000002   -0.00246257
     atom    4 type  1   force =    -0.00002581   -0.00002581    0.00238467
     atom    5 type  1   force =     0.00000002   -0.00000010    0.00237394
     atom    6 type  1   force =     0.00000002    0.00003794   -0.00246256
     atom    7 type  1   force =    -0.00001286   -0.00000010   -0.00245350
     atom    8 type  1   force =    -0.00002581    0.00002562    0.00238466
     atom    9 type  1   force =    -0.00000010    0.00000002    0.00237394
     atom   10 type  1   force =    -0.00000010   -0.00001286   -0.00245350
     atom   11 type  1   force =     0.00003794    0.00000002   -0.00246256
     atom   12 type  1   force =     0.00002562   -0.00002581    0.00238466
     atom   13 type  1   force =    -0.00000010   -0.00000010    0.00237313
     atom   14 type  1   force =    -0.00000010    0.00001267   -0.00245350
     atom   15 type  1   force =     0.00001267   -0.00000010   -0.00245350
     atom   16 type  1   force =     0.00002562    0.00002562    0.00238465

     Total force =     0.036996     Total SCF correction =     0.009687
     SCF correction compared to forces is large: reduce conv_thr to get better values


     Computing stress (Cartesian axis) and pressure


     negative rho (up, down):  4.465E-03 0.000E+00
          total   stress  (Ry/bohr**3)                   (kbar)     P=      -43.64
  -0.00032697   0.00000000   0.00000000          -48.10        0.00        0.00
   0.00000000  -0.00032697   0.00000000            0.00      -48.10        0.00
   0.00000000   0.00000000  -0.00023605            0.00        0.00      -34.72

     kinetic stress (kbar)  15875.85      0.00      0.00
                                0.00  15875.85      0.00
                                0.00      0.00  15948.16

     local   stress (kbar)-245541.68     -0.00     -0.00
                               -0.00-245541.68     -0.00
                               -0.00     -0.00 244756.12

     nonloc. stress (kbar)   1857.02      0.00      0.00
                                0.00   1857.02      0.00
                                0.00      0.00   1839.29

     hartree stress (kbar) 129207.85     -0.00     -0.00
                               -0.00 129207.85     -0.00
                               -0.00     -0.00-109971.87

     exc-cor stress (kbar)  -2862.22     -0.00     -0.00
                               -0.00  -2862.22     -0.00
                               -0.00     -0.00  -2868.09

     corecor stress (kbar)   -387.77      0.00     -0.00
                                0.00   -387.77     -0.00
                               -0.00     -0.00   -387.73

     ewald   stress (kbar) 101802.86      0.00     -0.00
                                0.00 101802.86     -0.00
                               -0.00     -0.00-149350.60

     hubbard stress (kbar)      0.00      0.00      0.00
                                0.00      0.00      0.00
                                0.00      0.00      0.00

     DFT-D   stress (kbar)      0.00      0.00      0.00
                                0.00      0.00      0.00
                                0.00      0.00      0.00

     XDM     stress (kbar)      0.00      0.00      0.00
                                0.00      0.00      0.00
                                0.00      0.00      0.00

     dft-nl  stress (kbar)      0.00      0.00      0.00
                                0.00      0.00      0.00
                                0.00      0.00      0.00

     TS-vdW  stress (kbar)      0.00      0.00      0.00
                                0.00      0.00      0.00
                                0.00      0.00      0.00



     BFGS Geometry Optimization
     Energy error            =      0.0E+00
     Gradient error          =      9.3E-03

     number of scf cycles    =   1
     number of bfgs steps    =   0

     energy   new            =   -4729.2914397772 Ry

     new trust radius        =       0.0092566675 bohr
     new conv_thr            =       0.0000010000 Ry


ATOMIC_POSITIONS (angstrom)
Ag            0.0000000000        0.0000000000        0.0048927800
Ag            0.0000000000        2.0802704487        2.0753793892
Ag            2.0802704487        0.0000000000        2.0753793892
Ag            2.0802716555        2.0802716555        0.0048984164
Ag            0.0000000000        4.1605480000        0.0048894465
Ag            0.0000000000        6.2408255513        2.0753793892
Ag            2.0802721948        4.1605480000        2.0753799745
Ag            2.0802716555        6.2408243445        0.0048984164
Ag            4.1605480000        0.0000000000        0.0048894465
Ag            4.1605480000        2.0802721948        2.0753799745
Ag            6.2408255513        0.0000000000        2.0753793892
Ag            6.2408243445        2.0802716555        0.0048984164
Ag            4.1605480000        4.1605480000        0.0048892066
Ag            4.1605480000        6.2408238052        2.0753799745
Ag            6.2408238052        4.1605480000        2.0753799745
Ag            6.2408243445        6.2408243445        0.0048984164



     Writing output data file ./surface.save/
     NEW-OLD atomic charge density approx. for the potential

     negative rho (up, down):  4.506E-03 0.000E+00

     total cpu time spent up to now is       54.7 secs

     Self-consistent Calculation

     iteration #  1     ecut=    30.00 Ry     beta= 0.30
     Davidson diagonalization with overlap
     ethr =  1.00E-06,  avg # of iterations =  4.1

     Threshold (ethr) on eigenvalues was too large:
     Diagonalizing with lowered threshold

     Davidson diagonalization with overlap
     ethr =  2.01E-08,  avg # of iterations =  2.0

     negative rho (up, down):  4.507E-03 0.000E+00

     total cpu time spent up to now is       66.5 secs

     total energy              =   -4729.29268571 Ry
     estimated scf accuracy    <       0.00006373 Ry

     iteration #  2     ecut=    30.00 Ry     beta= 0.30
     Davidson diagonalization with overlap
     ethr =  2.10E-08,  avg # of iterations =  2.0

     negative rho (up, down):  4.505E-03 0.000E+00

     total cpu time spent up to now is       70.8 secs

     total energy              =   -4729.29269209 Ry
     estimated scf accuracy    <       0.00000903 Ry

     iteration #  3     ecut=    30.00 Ry     beta= 0.30
     Davidson diagonalization with overlap
     ethr =  2.97E-09,  avg # of iterations =  1.0

     negative rho (up, down):  4.504E-03 0.000E+00

     total cpu time spent up to now is       74.3 secs

     total energy              =   -4729.29269254 Ry
     estimated scf accuracy    <       0.00000286 Ry

     iteration #  4     ecut=    30.00 Ry     beta= 0.30
     Davidson diagonalization with overlap
     ethr =  9.41E-10,  avg # of iterations =  2.0

     negative rho (up, down):  4.499E-03 0.000E+00

     total cpu time spent up to now is       78.5 secs

     End of self-consistent calculation

          k = 0.0000 0.0000 0.0000 ( 18383 PWs)   bands (ev):

   -89.9423 -89.9356 -89.9356 -89.9356 -89.9356 -89.9333 -89.9333 -89.9333
   -89.9333 -89.9332 -89.9310 -89.9310 -89.9310 -89.9310 -89.9289 -89.9289
   -53.4596 -53.4596 -53.4570 -53.4570 -53.4570 -53.4570 -53.4283 -53.4283
   -53.4282 -53.4282 -53.4259 -53.4259 -53.4259 -53.4259 -53.4238 -53.4215
   -53.4215 -53.4142 -53.4142 -53.4142 -53.4142 -53.3942 -53.3942 -53.3941
   -53.3941 -53.3919 -53.3919 -53.3882 -53.3882 -53.3882 -53.3882 -53.3803
   -53.3802 -53.3763 -53.3762 -53.3762 -53.3762 -53.3738 -53.3738 -53.3738
   -53.3738 -53.3670 -53.3670 -53.3630 -53.3629 -53.3629 -53.3629 -53.3607
    -4.2361  -3.7534  -3.7224  -3.6114  -3.6114  -3.5440  -3.5440  -3.5440
    -3.5439  -3.4181  -3.4181  -3.1133  -3.1133  -3.1133  -3.1133  -3.1119
    -3.1119  -3.1119  -3.1119  -3.0488  -2.9932  -2.9932  -2.9932  -2.9932
    -2.7755  -2.7755  -2.7755  -2.7755  -2.6603  -2.6603  -2.6602  -2.6602
    -2.3823  -2.3823  -2.3823  -2.3823  -2.3256  -2.3256  -2.3256  -2.3256
    -2.2543  -2.2543  -2.2492  -2.2492  -2.2492  -2.2492  -2.2368  -2.2368
    -2.2368  -2.2367  -2.0596  -1.8517  -1.8517  -1.8517  -1.8517  -1.8027
    -1.8027  -1.8027  -1.8027  -1.7656  -1.7656  -1.6454  -1.6454  -1.6454
    -1.6454  -1.5850  -1.4987  -1.4987  -1.3960  -1.3960  -1.3960  -1.3960
    -1.3958  -1.3958  -1.3958  -1.3957  -1.2955  -1.2955  -1.2234  -0.8524
    -0.8524  -0.5812  -0.5812  -0.5811  -0.5811   0.1959   1.8893   1.8893
     1.8893   1.8894   2.5409   2.5409   2.5410   2.5410   3.0570   4.8068
     4.8068   4.8068   4.8069   5.1402   5.1402   5.7257   5.9374   5.9374
     5.9375   5.9375   6.1364   8.0157   8.0157   8.0159   8.0159   8.1685
     8.1685   8.1688   8.1689   8.6760   8.6760   8.6764

     occupation numbers 
     1.0000   1.0000   1.0000   1.0000   1.0000   1.0000   1.0000   1.0000
     1.0000   1.0000   1.0000   1.0000   1.0000   1.0000   1.0000   1.0000
     1.0000   1.0000   1.0000   1.0000   1.0000   1.0000   1.0000   1.0000
     1.0000   1.0000   1.0000   1.0000   1.0000   1.0000   1.0000   1.0000
     1.0000   1.0000   1.0000   1.0000   1.0000   1.0000   1.0000   1.0000
     1.0000   1.0000   1.0000   1.0000   1.0000   1.0000   1.0000   1.0000
     1.0000   1.0000   1.0000   1.0000   1.0000   1.0000   1.0000   1.0000
     1.0000   1.0000   1.0000   1.0000   1.0000   1.0000   1.0000   1.0000
     1.0000   1.0000   1.0000   1.0000   1.0000   1.0000   1.0000   1.0000
     1.0000   1.0000   1.0000   1.0000   1.0000   1.0000   1.0000   1.0000
     1.0000   1.0000   1.0000   1.0000   1.0000   1.0000   1.0000   1.0000
     1.0000   1.0000   1.0000   1.0000   1.0000   1.0000   1.0000   1.0000
     1.0000   1.0000   1.0000   1.0000   1.0000   1.0000   1.0000   1.0000
     1.0000   1.0000   1.0000   1.0000   1.0000   1.0000   1.0000   1.0000
     1.0000   1.0000   1.0000   1.0000   1.0000   1.0000   1.0000   1.0000
     1.0000   1.0000   1.0000   1.0000   1.0000   1.0000   1.0000   1.0000
     1.0000   1.0000   1.0000   1.0000   1.0000   1.0000   1.0000   1.0000
     1.0000   1.0000   1.0000   1.0000   1.0000   1.0000   1.0000   1.0000
     1.0000   1.0000   1.0000   1.0000   1.0000   1.0000   0.0000   0.0000
     0.0000   0.0000   0.0000   0.0000   0.0000   0.0000   0.0000   0.0000
     0.0000   0.0000   0.0000   0.0000   0.0000   0.0000   0.0000   0.0000
     0.0000   0.0000   0.0000   0.0000   0.0000   0.0000   0.0000   0.0000
     0.0000   0.0000   0.0000   0.0000   0.0000   0.0000

          k = 0.0000 0.1667 0.0000 ( 18387 PWs)   bands (ev):

   -89.9420 -89.9373 -89.9355 -89.9355 -89.9339 -89.9339 -89.9339 -89.9331
   -89.9327 -89.9327 -89.9316 -89.9311 -89.9311 -89.9305 -89.9292 -89.9290
   -53.4587 -53.4587 -53.4569 -53.4569 -53.4549 -53.4549 -53.4346 -53.4341
   -53.4317 -53.4317 -53.4310 -53.4309 -53.4235 -53.4234 -53.4216 -53.4206
   -53.4179 -53.4171 -53.4103 -53.4082 -53.4082 -53.4012 -53.3934 -53.3931
   -53.3921 -53.3921 -53.3876 -53.3872 -53.3871 -53.3864 -53.3856 -53.3807
   -53.3799 -53.3797 -53.3797 -53.3773 -53.3772 -53.3735 -53.3734 -53.3730
   -53.3730 -53.3679 -53.3678 -53.3664 -53.3634 -53.3634 -53.3603 -53.3600
    -4.1721  -3.7259  -3.6835  -3.5819  -3.5808  -3.5255  -3.5255  -3.5187
    -3.5187  -3.4042  -3.4038  -3.1920  -3.1729  -3.1588  -3.1574  -3.1574
    -3.1473  -3.1472  -3.1414  -3.0629  -3.0460  -3.0233  -2.9768  -2.9768
    -2.8960  -2.8247  -2.8247  -2.7074  -2.7074  -2.6425  -2.6425  -2.4771
    -2.4654  -2.4179  -2.4137  -2.4137  -2.3555  -2.3555  -2.3447  -2.3447
    -2.3408  -2.3048  -2.3048  -2.2701  -2.2689  -2.1707  -2.1707  -2.1410
    -2.0863  -2.0639  -2.0381  -2.0107  -1.8362  -1.7847  -1.7756  -1.7756
    -1.7678  -1.7678  -1.7666  -1.7168  -1.7165  -1.7164  -1.6966  -1.6281
    -1.5749  -1.5749  -1.5153  -1.5060  -1.4495  -1.4495  -1.4004  -1.4004
    -1.3827  -1.3819  -1.3786  -1.3786  -1.3106  -1.3002  -1.2446  -1.0410
    -0.9363  -0.8956  -0.5268  -0.5267   0.1618   0.2654   1.1193   1.1193
     1.8412   2.5943   2.5943   2.7312   2.7312   3.1609   3.3672   4.2530
     4.2530   4.5502   5.1687   5.2847   5.4861   5.4861   5.7906   5.9868
     5.9868   6.1925   6.7890   7.3273   7.5456   7.7439   7.8712   7.8713
     8.0688   8.0689   8.1194   8.1195   8.2301   8.2305

     occupation numbers 
     1.0000   1.0000   1.0000   1.0000   1.0000   1.0000   1.0000   1.0000
     1.0000   1.0000   1.0000   1.0000   1.0000   1.0000   1.0000   1.0000
     1.0000   1.0000   1.0000   1.0000   1.0000   1.0000   1.0000   1.0000
     1.0000   1.0000   1.0000   1.0000   1.0000   1.0000   1.0000   1.0000
     1.0000   1.0000   1.0000   1.0000   1.0000   1.0000   1.0000   1.0000
     1.0000   1.0000   1.0000   1.0000   1.0000   1.0000   1.0000   1.0000
     1.0000   1.0000   1.0000   1.0000   1.0000   1.0000   1.0000   1.0000
     1.0000   1.0000   1.0000   1.0000   1.0000   1.0000   1.0000   1.0000
     1.0000   1.0000   1.0000   1.0000   1.0000   1.0000   1.0000   1.0000
     1.0000   1.0000   1.0000   1.0000   1.0000   1.0000   1.0000   1.0000
     1.0000   1.0000   1.0000   1.0000   1.0000   1.0000   1.0000   1.0000
     1.0000   1.0000   1.0000   1.0000   1.0000   1.0000   1.0000   1.0000
     1.0000   1.0000   1.0000   1.0000   1.0000   1.0000   1.0000   1.0000
     1.0000   1.0000   1.0000   1.0000   1.0000   1.0000   1.0000   1.0000
     1.0000   1.0000   1.0000   1.0000   1.0000   1.0000   1.0000   1.0000
     1.0000   1.0000   1.0000   1.0000   1.0000   1.0000   1.0000   1.0000
     1.0000   1.0000   1.0000   1.0000   1.0000   1.0000   1.0000   1.0000
     1.0000   1.0000   1.0000   1.0000   1.0000   1.0000   1.0000   1.0000
     1.0000   1.0000   1.0000   1.0000   1.0000   1.0000   1.0000   1.0000
     0.0000   0.0000   0.0000   0.0000   0.0000   0.0000   0.0000   0.0000
     0.0000   0.0000   0.0000   0.0000   0.0000   0.0000   0.0000   0.0000
     0.0000   0.0000   0.0000   0.0000   0.0000   0.0000   0.0000   0.0000
     0.0000   0.0000   0.0000   0.0000   0.0000   0.0000

          k = 0.0000 0.3333 0.0000 ( 18332 PWs)   bands (ev):

   -89.9413 -89.9389 -89.9353 -89.9352 -89.9344 -89.9344 -89.9329 -89.9323
   -89.9322 -89.9321 -89.9320 -89.9313 -89.9313 -89.9300 -89.9298 -89.9292
   -53.4552 -53.4549 -53.4534 -53.4534 -53.4503 -53.4503 -53.4427 -53.4414
   -53.4404 -53.4403 -53.4368 -53.4368 -53.4230 -53.4222 -53.4214 -53.4207
   -53.4180 -53.4092 -53.4070 -53.4063 -53.3979 -53.3978 -53.3966 -53.3966
   -53.3889 -53.3888 -53.3860 -53.3831 -53.3831 -53.3830 -53.3829 -53.3823
   -53.3820 -53.3820 -53.3807 -53.3801 -53.3777 -53.3746 -53.3746 -53.3706
   -53.3703 -53.3699 -53.3694 -53.3694 -53.3646 -53.3646 -53.3592 -53.3585
    -3.9864  -3.6449  -3.5712  -3.4967  -3.4917  -3.4640  -3.4640  -3.4509
    -3.4508  -3.3844  -3.3616  -3.3598  -3.3520  -3.2683  -3.2569  -3.2569
    -3.2390  -3.2389  -3.2157  -3.2079  -3.2025  -3.1091  -2.9485  -2.9388
    -2.9388  -2.8609  -2.8609  -2.6630  -2.6210  -2.6210  -2.5877  -2.5876
    -2.4501  -2.4485  -2.4485  -2.4085  -2.4085  -2.4082  -2.4082  -2.4063
    -2.4063  -2.3665  -2.3151  -2.3054  -2.1921  -2.0823  -2.0788  -2.0432
    -2.0432  -1.9689  -1.8778  -1.8322  -1.8197  -1.8010  -1.8010  -1.7730
    -1.7730  -1.7532  -1.7055  -1.7055  -1.6262  -1.6128  -1.6127  -1.5680
    -1.5554  -1.5282  -1.5271  -1.5271  -1.5076  -1.5076  -1.4172  -1.4172
    -1.4041  -1.4040  -1.3581  -1.3365  -1.3132  -1.3111  -1.3092  -1.2555
    -1.1627  -1.0143  -0.3472  -0.3471   0.4712   0.4778   0.4779   1.1197
     1.2639   2.7531   2.7532   3.2172   3.2172   3.4145   3.4569   4.2931
     4.2931   4.3208   4.4888   5.6933   5.9850   6.0724   6.0725   6.1168
     6.1168   6.3610   6.5236   6.5236   6.5644   6.7562   7.0369   7.0777
     7.7167   7.8897   7.8898   8.2037   8.2038   8.4042

     occupation numbers 
     1.0000   1.0000   1.0000   1.0000   1.0000   1.0000   1.0000   1.0000
     1.0000   1.0000   1.0000   1.0000   1.0000   1.0000   1.0000   1.0000
     1.0000   1.0000   1.0000   1.0000   1.0000   1.0000   1.0000   1.0000
     1.0000   1.0000   1.0000   1.0000   1.0000   1.0000   1.0000   1.0000
     1.0000   1.0000   1.0000   1.0000   1.0000   1.0000   1.0000   1.0000
     1.0000   1.0000   1.0000   1.0000   1.0000   1.0000   1.0000   1.0000
     1.0000   1.0000   1.0000   1.0000   1.0000   1.0000   1.0000   1.0000
     1.0000   1.0000   1.0000   1.0000   1.0000   1.0000   1.0000   1.0000
     1.0000   1.0000   1.0000   1.0000   1.0000   1.0000   1.0000   1.0000
     1.0000   1.0000   1.0000   1.0000   1.0000   1.0000   1.0000   1.0000
     1.0000   1.0000   1.0000   1.0000   1.0000   1.0000   1.0000   1.0000
     1.0000   1.0000   1.0000   1.0000   1.0000   1.0000   1.0000   1.0000
     1.0000   1.0000   1.0000   1.0000   1.0000   1.0000   1.0000   1.0000
     1.0000   1.0000   1.0000   1.0000   1.0000   1.0000   1.0000   1.0000
     1.0000   1.0000   1.0000   1.0000   1.0000   1.0000   1.0000   1.0000
     1.0000   1.0000   1.0000   1.0000   1.0000   1.0000   1.0000   1.0000
     1.0000   1.0000   1.0000   1.0000   1.0000   1.0000   1.0000   1.0000
     1.0000   1.0000   1.0000   1.0000   1.0000   1.0000   1.0000   1.0000
     1.0000   1.0000   1.0000   1.0000   1.0000   1.0000   1.0000   1.0000
     1.0000   0.0000   0.0000   0.0000   0.0000   0.0000   0.0000   0.0000
     0.0000   0.0000   0.0000   0.0000   0.0000   0.0000   0.0000   0.0000
     0.0000   0.0000   0.0000   0.0000   0.0000   0.0000   0.0000   0.0000
     0.0000   0.0000   0.0000   0.0000   0.0000   0.0000

          k = 0.0000-0.5000 0.0000 ( 18312 PWs)   bands (ev):

   -89.9403 -89.9402 -89.9350 -89.9350 -89.9348 -89.9348 -89.9326 -89.9325
   -89.9318 -89.9317 -89.9316 -89.9316 -89.9309 -89.9308 -89.9296 -89.9294
   -53.4492 -53.4492 -53.4491 -53.4490 -53.4481 -53.4481 -53.4481 -53.4481
   -53.4438 -53.4438 -53.4438 -53.4438 -53.4220 -53.4219 -53.4217 -53.4216
   -53.4139 -53.4138 -53.4017 -53.4016 -53.4011 -53.4010 -53.3894 -53.3894
   -53.3894 -53.3894 -53.3861 -53.3861 -53.3860 -53.3860 -53.3838 -53.3836
   -53.3785 -53.3785 -53.3785 -53.3785 -53.3747 -53.3745 -53.3744 -53.3742
   -53.3738 -53.3737 -53.3667 -53.3667 -53.3666 -53.3666 -53.3582 -53.3581
    -3.7028  -3.7027  -3.5151  -3.5150  -3.4024  -3.4023  -3.3789  -3.3788
    -3.3690  -3.3690  -3.3689  -3.3689  -3.3579  -3.3577  -3.3511  -3.3511
    -3.3510  -3.3510  -3.2959  -3.2957  -3.2696  -3.2696  -2.8969  -2.8969
    -2.8968  -2.8968  -2.8265  -2.8264  -2.5342  -2.5342  -2.5342  -2.5341
    -2.4830  -2.4830  -2.4829  -2.4829  -2.4488  -2.4488  -2.4487  -2.4487
    -2.3812  -2.3811  -2.3446  -2.3445  -2.1065  -2.1064  -1.9383  -1.9382
    -1.9116  -1.9116  -1.9115  -1.9115  -1.8949  -1.8947  -1.7983  -1.7982
    -1.6607  -1.6606  -1.6174  -1.6174  -1.6173  -1.6173  -1.5672  -1.5671
    -1.4831  -1.4831  -1.4830  -1.4830  -1.4758  -1.4757  -1.4515  -1.4515
    -1.4515  -1.4515  -1.4174  -1.4173  -1.3330  -1.3329  -1.3309  -1.3309
    -1.1725  -1.1725  -0.0151  -0.0151  -0.0150  -0.0150   0.8064   0.8065
     2.2254   2.2255   3.0033   3.0034   3.0035   3.0035   3.9107   3.9108
     5.2750   5.2751   5.2751   5.2751   5.3944   5.3944   6.2384   6.2384
     6.2384   6.2385   6.3076   6.3076   6.3098   6.3100   6.6423   6.6423
[...]
    -2.1807  -2.1807  -2.1807  -2.1807  -2.1807  -2.1807  -2.1807  -2.1807
    -2.1002  -2.1001  -2.1001  -2.1000  -1.9792  -1.9791  -1.9791  -1.9790
    -1.6974  -1.6974  -1.6974  -1.6974  -1.6973  -1.6973  -1.6973  -1.6973
    -1.5677  -1.5676  -1.5676  -1.5675  -1.4396  -1.4395  -1.4395  -1.4395
    -1.3648  -1.3648  -1.3648  -1.3648  -1.3648  -1.3648  -1.3648  -1.3648
    -1.2108  -1.2107  -1.2107  -1.2107   1.3822   1.3823   1.3823   1.3824
     3.1043   3.1043   3.1044   3.1044   3.1045   3.1045   3.1046   3.1046
     4.6737   4.6738   4.6738   4.6739   6.0792   6.0792   6.0792   6.0792
     6.0793   6.0793   6.0794   6.0794   6.8864   6.8865   6.8865   6.8865
     7.1737   7.1737   7.1737   7.1738   8.1397   8.1398

     occupation numbers 
     1.0000   1.0000   1.0000   1.0000   1.0000   1.0000   1.0000   1.0000
     1.0000   1.0000   1.0000   1.0000   1.0000   1.0000   1.0000   1.0000
     1.0000   1.0000   1.0000   1.0000   1.0000   1.0000   1.0000   1.0000
     1.0000   1.0000   1.0000   1.0000   1.0000   1.0000   1.0000   1.0000
     1.0000   1.0000   1.0000   1.0000   1.0000   1.0000   1.0000   1.0000
     1.0000   1.0000   1.0000   1.0000   1.0000   1.0000   1.0000   1.0000
     1.0000   1.0000   1.0000   1.0000   1.0000   1.0000   1.0000   1.0000
     1.0000   1.0000   1.0000   1.0000   1.0000   1.0000   1.0000   1.0000
     1.0000   1.0000   1.0000   1.0000   1.0000   1.0000   1.0000   1.0000
     1.0000   1.0000   1.0000   1.0000   1.0000   1.0000   1.0000   1.0000
     1.0000   1.0000   1.0000   1.0000   1.0000   1.0000   1.0000   1.0000
     1.0000   1.0000   1.0000   1.0000   1.0000   1.0000   1.0000   1.0000
     1.0000   1.0000   1.0000   1.0000   1.0000   1.0000   1.0000   1.0000
     1.0000   1.0000   1.0000   1.0000   1.0000   1.0000   1.0000   1.0000
     1.0000   1.0000   1.0000   1.0000   1.0000   1.0000   1.0000   1.0000
     1.0000   1.0000   1.0000   1.0000   1.0000   1.0000   1.0000   1.0000
     1.0000   1.0000   1.0000   1.0000   1.0000   1.0000   1.0000   1.0000
     1.0000   1.0000   1.0000   1.0000   1.0000   1.0000   1.0000   1.0000
     1.0000   1.0000   1.0000   1.0000   1.0000   1.0000   1.0000   1.0000
     0.0000   0.0000   0.0000   0.0000   0.0000   0.0000   0.0000   0.0000
     0.0000   0.0000   0.0000   0.0000   0.0000   0.0000   0.0000   0.0000
     0.0000   0.0000   0.0000   0.0000   0.0000   0.0000   0.0000   0.0000
     0.0000   0.0000   0.0000   0.0000   0.0000   0.0000

     the Fermi energy is     1.5584 ev

!    total energy              =   -4729.29735232 Ry
     estimated scf accuracy    <          1.8E-09 Ry
     smearing contrib. (-TS)   =      -0.00031398 Ry
     internal energy E=F+TS    =   -4729.29703834 Ry

     The total energy is F=E-TS. E is the sum of the following terms:
     one-electron contribution =  -13633.06767687 Ry
     hartree contribution      =    6801.03700763 Ry
     xc contribution           =    -462.81372555 Ry
     ewald contribution        =    2565.54735645 Ry

     convergence has been achieved in   6 iterations

     negative rho (up, down):  4.512E-03 0.000E+00

     Forces acting on atoms (cartesian axes, Ry/au):

     atom    1 type  1   force =     0.00000000    0.00000000    0.00004777
     atom    2 type  1   force =     0.00000000    0.00001489   -0.00004138
     atom    3 type  1   force =     0.00001489    0.00000000   -0.00004138
     atom    4 type  1   force =     0.00001455    0.00001455    0.00003552
     atom    5 type  1   force =     0.00000000    0.00000000    0.00005921
     atom    6 type  1   force =     0.00000000   -0.00001489   -0.00004138
     atom    7 type  1   force =     0.00001514    0.00000000   -0.00005335
     atom    8 type  1   force =     0.00001455   -0.00001455    0.00003552
     atom    9 type  1   force =     0.00000000    0.00000000    0.00005921
     atom   10 type  1   force =     0.00000000    0.00001514   -0.00005335
     atom   11 type  1   force =    -0.00001489    0.00000000   -0.00004138
     atom   12 type  1   force =    -0.00001455    0.00001455    0.00003552
     atom   13 type  1   force =     0.00000000    0.00000000    0.00007063
     atom   14 type  1   force =     0.00000000   -0.00001514   -0.00005335
     atom   15 type  1   force =    -0.00001514    0.00000000   -0.00005335
     atom   16 type  1   force =    -0.00001455   -0.00001455    0.00003552
     The non-local contrib.  to forces
     atom    1 type  1   force =     0.00000000    0.00000000   -0.21355289
     atom    2 type  1   force =     0.00000000    0.00001492    0.21358606
     atom    3 type  1   force =     0.00001492    0.00000000    0.21358606
     atom    4 type  1   force =     0.00001452    0.00001452   -0.21357066
     atom    5 type  1   force =     0.00000000    0.00000000   -0.21356173
     atom    6 type  1   force =     0.00000000   -0.00001492    0.21358606
     atom    7 type  1   force =     0.00001488    0.00000000    0.21359461
     atom    8 type  1   force =     0.00001452   -0.00001452   -0.21357066
     atom    9 type  1   force =     0.00000000    0.00000000   -0.21356173
     atom   10 type  1   force =     0.00000000    0.00001488    0.21359461
     atom   11 type  1   force =    -0.00001492    0.00000000    0.21358606
     atom   12 type  1   force =    -0.00001452    0.00001452   -0.21357066
     atom   13 type  1   force =     0.00000000    0.00000000   -0.21357169
     atom   14 type  1   force =     0.00000000   -0.00001488    0.21359461
     atom   15 type  1   force =    -0.00001488    0.00000000    0.21359461
     atom   16 type  1   force =    -0.00001452   -0.00001452   -0.21357066
     The ionic contribution  to forces
     atom    1 type  1   force =    -0.00011891   -0.00011891  -98.58285019
     atom    2 type  1   force =    -0.00011891    0.00405095   98.57952940
     atom    3 type  1   force =     0.00405095   -0.00011891   98.57952940
     atom    4 type  1   force =     0.00406703    0.00406703  -98.57627507
     atom    5 type  1   force =    -0.00011890    0.00004539  -98.58031101
     atom    6 type  1   force =    -0.00011891   -0.00397742   98.57947663
     atom    7 type  1   force =     0.00409494    0.00004539   98.57722240
     atom    8 type  1   force =     0.00406703   -0.00399350  -98.57622230
     atom    9 type  1   force =     0.00004539   -0.00011890  -98.58031101
     atom   10 type  1   force =     0.00004539    0.00409494   98.57722240
     atom   11 type  1   force =    -0.00397742   -0.00011891   98.57947663
     atom   12 type  1   force =    -0.00399350    0.00406703  -98.57622230
     atom   13 type  1   force =     0.00004538    0.00004538  -98.57843473
     atom   14 type  1   force =     0.00004539   -0.00402142   98.57716963
     atom   15 type  1   force =    -0.00402142    0.00004539   98.57716963
     atom   16 type  1   force =    -0.00399350   -0.00399350  -98.57616953
     The local contribution  to forces
     atom    1 type  1   force =    -0.00000000   -0.00000000   98.79485926
     atom    2 type  1   force =    -0.00000000   -0.00327186  -98.79155859
     atom    3 type  1   force =    -0.00327186   -0.00000000  -98.79155859
     atom    4 type  1   force =    -0.00329106   -0.00329106   98.78822387
     atom    5 type  1   force =    -0.00000000    0.00077498   98.79233069
     atom    6 type  1   force =     0.00000000    0.00482183  -98.79155859
     atom    7 type  1   force =    -0.00331687    0.00077498  -98.78925797
     atom    8 type  1   force =    -0.00329106    0.00484103   98.78822386
     atom    9 type  1   force =     0.00077498   -0.00000000   98.79233069
     atom   10 type  1   force =     0.00077498   -0.00331687  -98.78925797
     atom   11 type  1   force =     0.00482183   -0.00000000  -98.79155859
     atom   12 type  1   force =     0.00484103   -0.00329106   98.78822386
     atom   13 type  1   force =     0.00077499    0.00077499   98.79045638
     atom   14 type  1   force =     0.00077498    0.00486685  -98.78925797
     atom   15 type  1   force =     0.00486685    0.00077498  -98.78925797
     atom   16 type  1   force =     0.00484103    0.00484103   98.78822386
     The core correction contribution to forces
     atom    1 type  1   force =    -0.00000000   -0.00000000    0.00154312
     atom    2 type  1   force =    -0.00000000    0.00000046   -0.00154278
     atom    3 type  1   force =     0.00000046   -0.00000000   -0.00154278
     atom    4 type  1   force =     0.00000047    0.00000047    0.00154214
     atom    5 type  1   force =    -0.00000000    0.00000050    0.00154308
     atom    6 type  1   force =    -0.00000000    0.00000054   -0.00154278
     atom    7 type  1   force =     0.00000046    0.00000050   -0.00154274
     atom    8 type  1   force =     0.00000047    0.00000054    0.00154214
     atom    9 type  1   force =     0.00000050   -0.00000000    0.00154308
     atom   10 type  1   force =     0.00000050    0.00000046   -0.00154274
     atom   11 type  1   force =     0.00000054   -0.00000000   -0.00154278
     atom   12 type  1   force =     0.00000054    0.00000047    0.00154214
     atom   13 type  1   force =     0.00000050    0.00000050    0.00154306
     atom   14 type  1   force =     0.00000050    0.00000055   -0.00154274
     atom   15 type  1   force =     0.00000055    0.00000050   -0.00154274
     atom   16 type  1   force =     0.00000054    0.00000054    0.00154214
     The Hubbard contrib.    to forces
     atom    1 type  1   force =     0.00000000    0.00000000    0.00000000
     atom    2 type  1   force =     0.00000000    0.00000000    0.00000000
     atom    3 type  1   force =     0.00000000    0.00000000    0.00000000
     atom    4 type  1   force =     0.00000000    0.00000000    0.00000000
     atom    5 type  1   force =     0.00000000    0.00000000    0.00000000
     atom    6 type  1   force =     0.00000000    0.00000000    0.00000000
     atom    7 type  1   force =     0.00000000    0.00000000    0.00000000
     atom    8 type  1   force =     0.00000000    0.00000000    0.00000000
     atom    9 type  1   force =     0.00000000    0.00000000    0.00000000
     atom   10 type  1   force =     0.00000000    0.00000000    0.00000000
     atom   11 type  1   force =     0.00000000    0.00000000    0.00000000
     atom   12 type  1   force =     0.00000000    0.00000000    0.00000000
     atom   13 type  1   force =     0.00000000    0.00000000    0.00000000
     atom   14 type  1   force =     0.00000000    0.00000000    0.00000000
     atom   15 type  1   force =     0.00000000    0.00000000    0.00000000
     atom   16 type  1   force =     0.00000000    0.00000000    0.00000000
     The SCF correction term to forces
     atom    1 type  1   force =    -0.00000000   -0.00000000    0.00006069
     atom    2 type  1   force =    -0.00000000    0.00003267   -0.00001686
     atom    3 type  1   force =     0.00003267   -0.00000000   -0.00001686
     atom    4 type  1   force =     0.00003585    0.00003585    0.00007469
     atom    5 type  1   force =    -0.00000000   -0.00000000    0.00007039
     atom    6 type  1   force =    -0.00000000   -0.00003267   -0.00001686
     atom    7 type  1   force =     0.00003398   -0.00000000   -0.00003104
     atom    8 type  1   force =     0.00003585   -0.00003585    0.00007469
     atom    9 type  1   force =    -0.00000000   -0.00000000    0.00007039
     atom   10 type  1   force =    -0.00000000    0.00003398   -0.00003104
     atom   11 type  1   force =    -0.00003267   -0.00000000   -0.00001686
     atom   12 type  1   force =    -0.00003585    0.00003585    0.00007469
     atom   13 type  1   force =    -0.00000000   -0.00000000    0.00008983
     atom   14 type  1   force =    -0.00000000   -0.00003398   -0.00003105
     atom   15 type  1   force =    -0.00003398   -0.00000000   -0.00003105
     atom   16 type  1   force =    -0.00003585   -0.00003585    0.00007470

     Total force =     0.000203     Total SCF correction =     0.000261
     SCF correction compared to forces is large: reduce conv_thr to get better values


     Computing stress (Cartesian axis) and pressure


     negative rho (up, down):  4.512E-03 0.000E+00
          total   stress  (Ry/bohr**3)                   (kbar)     P=      -38.86
  -0.00029763   0.00000000   0.00000000          -43.78        0.00        0.00
   0.00000000  -0.00029763   0.00000000            0.00      -43.78        0.00
   0.00000000   0.00000000  -0.00019721            0.00        0.00      -29.01

     kinetic stress (kbar)  15880.19      0.00      0.00
                                0.00  15880.19      0.00
                                0.00      0.00  15951.75

     local   stress (kbar)-251670.60     -0.00      0.00
                               -0.00-251670.60      0.00
                                0.00      0.00 251469.38

     nonloc. stress (kbar)   1858.93      0.00      0.00
                                0.00   1858.93      0.00
                                0.00      0.00   1840.06

     hartree stress (kbar) 132197.31      0.00     -0.00
                                0.00 132197.31      0.00
                               -0.00      0.00-113190.15

     exc-cor stress (kbar)  -2862.95     -0.00      0.00
                               -0.00  -2862.95      0.00
                                0.00      0.00  -2868.80

     corecor stress (kbar)   -387.77      0.00      0.00
                                0.00   -387.77      0.00
                                0.00      0.00   -387.72

     ewald   stress (kbar) 104941.11     -0.00     -0.00
                               -0.00 104941.11     -0.00
                               -0.00     -0.00-152843.53

     hubbard stress (kbar)      0.00      0.00      0.00
                                0.00      0.00      0.00
                                0.00      0.00      0.00

     DFT-D   stress (kbar)      0.00      0.00      0.00
                                0.00      0.00      0.00
                                0.00      0.00      0.00

     XDM     stress (kbar)      0.00      0.00      0.00
                                0.00      0.00      0.00
                                0.00      0.00      0.00

     dft-nl  stress (kbar)      0.00      0.00      0.00
                                0.00      0.00      0.00
                                0.00      0.00      0.00

     TS-vdW  stress (kbar)      0.00      0.00      0.00
                                0.00      0.00      0.00
                                0.00      0.00      0.00


     Energy error            =      9.9E-06
     Gradient error          =      7.1E-05

     bfgs converged in   7 scf cycles and   6 bfgs steps
     (criteria: energy <  1.0E-04 Ry, force <  1.0E-03 Ry/Bohr)

     End of BFGS Geometry Optimization

     Final energy   =   -4729.2973523160 Ry

     File ./surface.bfgs deleted, as requested
Begin final coordinates

ATOMIC_POSITIONS (angstrom)
Ag            0.0000000000        0.0000000000        0.0421246500
Ag            0.0000000000        2.0802248239        2.0381183433
Ag            2.0802248239        0.0000000000        2.0381183433
Ag            2.0802249239        2.0802249239        0.0421852431
Ag            0.0000000000        4.1605480000        0.0421221955
Ag            0.0000000000        6.2408711761        2.0381183433
Ag            2.0802257305        4.1605480000        2.0381250768
Ag            2.0802249239        6.2408710761        0.0421852431
Ag            4.1605480000        0.0000000000        0.0421221955
Ag            4.1605480000        2.0802257305        2.0381250768
Ag            6.2408711761        0.0000000000        2.0381183433
Ag            6.2408710761        2.0802249239        0.0421852431
Ag            4.1605480000        4.1605480000        0.0421083062
Ag            4.1605480000        6.2408702695        2.0381250768
Ag            6.2408702695        4.1605480000        2.0381250768
Ag            6.2408710761        6.2408710761        0.0421852431
End final coordinates



     Writing output data file ./surface.save/

     init_run     :      2.11s CPU      2.20s WALL (       1 calls)
     electrons    :    229.52s CPU    235.71s WALL (       7 calls)
     update_pot   :      1.71s CPU      1.72s WALL (       6 calls)
     forces       :      7.73s CPU      7.95s WALL (       7 calls)
     stress       :     24.47s CPU     24.89s WALL (       7 calls)

     Called by init_run:
     wfcinit      :      1.39s CPU      1.41s WALL (       1 calls)
     wfcinit:atom :      0.01s CPU      0.01s WALL (      10 calls)
     wfcinit:wfcr :      1.29s CPU      1.31s WALL (      10 calls)
     potinit      :      0.12s CPU      0.12s WALL (       1 calls)
     hinit0       :      0.19s CPU      0.22s WALL (       1 calls)

     Called by electrons:
     c_bands      :    197.90s CPU    200.85s WALL (      49 calls)
     sum_band     :     25.95s CPU     27.74s WALL (      49 calls)
     v_of_rho     :      1.76s CPU      1.81s WALL (      52 calls)
     v_h          :      0.14s CPU      0.14s WALL (      52 calls)
     v_xc         :      2.05s CPU      2.12s WALL (      66 calls)
     newd         :      4.25s CPU      5.32s WALL (      52 calls)
     mix_rho      :      0.16s CPU      0.16s WALL (      49 calls)

     Called by c_bands:
     init_us_2    :      1.31s CPU      1.33s WALL (    1130 calls)
     cegterg      :    193.23s CPU    196.07s WALL (     490 calls)

     Called by sum_band:
     sum_band:wei :      0.03s CPU      0.03s WALL (      49 calls)
     sum_band:loo :     20.38s CPU     20.75s WALL (      49 calls)
     sum_band:buf :      0.62s CPU      0.64s WALL (     490 calls)
     sum_band:ini :      0.56s CPU      0.57s WALL (     490 calls)
     sum_band:cal :      6.24s CPU      6.29s WALL (     490 calls)
     sum_band:bec :      0.20s CPU      0.20s WALL (     490 calls)
     addusdens    :      3.52s CPU      4.92s WALL (      49 calls)
     addusd:skk   :      0.08s CPU      0.08s WALL (      49 calls)
     addusd:dgemm :      1.51s CPU      2.86s WALL (      49 calls)
     addusd:qvan2 :      1.57s CPU      1.58s WALL (      49 calls)

     Called by *egterg:
     cdiaghg      :     34.42s CPU     34.70s WALL (    1668 calls)
     cegterg:over :     18.65s CPU     18.81s WALL (    1278 calls)
     cegterg:upda :     11.58s CPU     11.69s WALL (    1278 calls)
     cegterg:last :     27.98s CPU     28.20s WALL (     976 calls)
     cdiaghg:chol :      1.58s CPU      1.60s WALL (    1668 calls)
     cdiaghg:inve :      1.75s CPU      1.77s WALL (    1668 calls)
     cdiaghg:para :      4.18s CPU      4.21s WALL (    3336 calls)
     h_psi        :     83.55s CPU     85.19s WALL (    1778 calls)
     s_psi        :      9.51s CPU      9.59s WALL (    1778 calls)
     g_psi        :      0.26s CPU      0.26s WALL (    1278 calls)

     Called by h_psi:
     h_psi:calbec :     16.27s CPU     16.41s WALL (    1778 calls)
     vloc_psi     :     57.20s CPU     58.52s WALL (    1778 calls)
     add_vuspsi   :      9.48s CPU      9.59s WALL (    1778 calls)

     General routines
     calbec       :     28.24s CPU     28.48s WALL (    2618 calls)
     fft          :      1.59s CPU      1.63s WALL (     847 calls)
     ffts         :      0.04s CPU      0.04s WALL (     101 calls)
     fftw         :     64.24s CPU     65.71s WALL (  518428 calls)
     interpolate  :      0.12s CPU      0.12s WALL (      52 calls)

     Parallel routines
     fft_scatt_xy :      5.65s CPU      5.77s WALL (  519376 calls)
     fft_scatt_yz :     30.71s CPU     31.46s WALL (  519376 calls)

     PWSCF        :   4m26.94s CPU   4m35.80s WALL


   This run was terminated on:   0:30: 1   6Dec2021            

=------------------------------------------------------------------------------=
   JOB DONE.
=------------------------------------------------------------------------------=
