
     Program PWSCF v.6.7MaX starts on  6Dec2021 at  0:25:25 

     This program is part of the open-source Quantum ESPRESSO suite
     for quantum simulation of materials; please cite
         "P. Giannozzi et al., J. Phys.:Condens. Matter 21 395502 (2009);
         "P. Giannozzi et al., J. Phys.:Condens. Matter 29 465901 (2017);
          URL http://www.quantum-espresso.org", 
     in publications or presentations arising from this work. More details at
     http://www.quantum-espresso.org/quote

     Parallel version (MPI), running on    32 processors

     MPI processes distributed on     1 nodes
     R & G space division:  proc/nbgrp/npool/nimage =      32
     Reading input from ag_surface.100.k.qe.8_8_1.in

     Current dimensions of program PWSCF are:
     Max number of different atomic species (ntypx) = 10
     Max number of k-points (npk) =  40000
     Max angular momentum in pseudopotentials (lmaxx) =  3

     Subspace diagonalization in iterative solution of the eigenvalue problem:
     one sub-group per band group will be used
     scalapack distributed-memory algorithm (size of sub-group:  5*  5 procs)

     Found symmetry operation: I + (  0.2500  0.2500  0.0000)
     This is a supercell, fractional translations are disabled

     Parallelization info
     --------------------
     sticks:   dense  smooth     PW     G-vecs:    dense   smooth      PW
     Min         184      73     20                18142     4583     666
     Max         185      74     21                18149     4592     675
     Sum        5909    2361    657               580679   146829   21417



     bravais-lattice index     =            8
     lattice parameter (alat)  =      15.7246  a.u.
     unit-cell volume          =    6616.6507 (a.u.)^3
     number of atoms/cell      =           16
     number of atomic types    =            1
     number of electrons       =       304.00
     number of Kohn-Sham states=          182
     kinetic-energy cutoff     =      30.0000  Ry
     charge density cutoff     =     300.0000  Ry
     scf convergence threshold =      1.0E-06
     mixing beta               =       0.3000
     number of iterations used =            8  plain     mixing
     energy convergence thresh.=      1.0E-04
     force convergence thresh. =      1.0E-03
     Exchange-correlation=  SLA  PW   PBX  PBC
                           (   1   4   3   4   0   0   0)
     nstep                     =           50


     celldm(1)=  15.724600  celldm(2)=   1.000000  celldm(3)=   1.701764
     celldm(4)=   0.000000  celldm(5)=   0.000000  celldm(6)=   0.000000

     crystal axes: (cart. coord. in units of alat)
               a(1) = (   1.000000   0.000000   0.000000 )  
               a(2) = (   0.000000   1.000000   0.000000 )  
               a(3) = (   0.000000   0.000000   1.701764 )  

     reciprocal axes: (cart. coord. in units 2 pi/alat)
               b(1) = (  1.000000  0.000000  0.000000 )  
               b(2) = (  0.000000  1.000000  0.000000 )  
               b(3) = (  0.000000  0.000000  0.587625 )  


     PseudoPot. # 1 for Ag read from file:
     /expanse/lustre/projects/csd622/tpascal/nano110/qe/pseudo/ag_pbe_v1.4.uspp.F.UPF
     MD5 check sum: d66d668201baa78d5eb5b04ef7011058
     Pseudo is Ultrasoft + core correction, Zval = 19.0
     Generated by new atomic code, or converted to UPF format
     Using radial grid of  887 points,  6 beta functions with: 
                l(1) =   0
                l(2) =   0
                l(3) =   1
                l(4) =   1
                l(5) =   2
                l(6) =   2
     Q(r) pseudized with  6 coefficients,  rinner =    1.300   1.300   1.300
                                                       1.300   1.300

     atomic species   valence    mass     pseudopotential
        Ag            19.00   107.86820     Ag( 1.00)

      8 Sym. Ops. (no inversion) found


                                    s                        frac. trans.

      isym =  1     identity                                     

 cryst.   s( 1) = (     1          0          0      )
                  (     0          1          0      )
                  (     0          0          1      )

 cart.    s( 1) = (  1.0000000  0.0000000  0.0000000 )
                  (  0.0000000  1.0000000  0.0000000 )
                  (  0.0000000  0.0000000  1.0000000 )


      isym =  2     180 deg rotation - cart. axis [0,0,1]        

 cryst.   s( 2) = (    -1          0          0      )
                  (     0         -1          0      )
                  (     0          0          1      )

 cart.    s( 2) = ( -1.0000000  0.0000000  0.0000000 )
                  (  0.0000000 -1.0000000  0.0000000 )
                  (  0.0000000  0.0000000  1.0000000 )


      isym =  3      90 deg rotation - cart. axis [0,0,-1]       

 cryst.   s( 3) = (     0         -1          0      )
                  (     1          0          0      )
                  (     0          0          1      )

 cart.    s( 3) = (  0.0000000  1.0000000  0.0000000 )
                  ( -1.0000000  0.0000000  0.0000000 )
                  (  0.0000000  0.0000000  1.0000000 )


      isym =  4      90 deg rotation - cart. axis [0,0,1]        

 cryst.   s( 4) = (     0          1          0      )
                  (    -1          0          0      )
                  (     0          0          1      )

 cart.    s( 4) = (  0.0000000 -1.0000000  0.0000000 )
                  (  1.0000000  0.0000000  0.0000000 )
                  (  0.0000000  0.0000000  1.0000000 )


      isym =  5     inv. 180 deg rotation - cart. axis [0,1,0]   

 cryst.   s( 5) = (     1          0          0      )
                  (     0         -1          0      )
                  (     0          0          1      )

 cart.    s( 5) = (  1.0000000  0.0000000  0.0000000 )
                  (  0.0000000 -1.0000000  0.0000000 )
                  (  0.0000000  0.0000000  1.0000000 )


      isym =  6     inv. 180 deg rotation - cart. axis [1,0,0]   

 cryst.   s( 6) = (    -1          0          0      )
                  (     0          1          0      )
                  (     0          0          1      )

 cart.    s( 6) = ( -1.0000000  0.0000000  0.0000000 )
                  (  0.0000000  1.0000000  0.0000000 )
                  (  0.0000000  0.0000000  1.0000000 )


      isym =  7     inv. 180 deg rotation - cart. axis [1,1,0]   

 cryst.   s( 7) = (     0         -1          0      )
                  (    -1          0          0      )
                  (     0          0          1      )

 cart.    s( 7) = (  0.0000000 -1.0000000  0.0000000 )
                  ( -1.0000000  0.0000000  0.0000000 )
                  (  0.0000000  0.0000000  1.0000000 )


      isym =  8     inv. 180 deg rotation - cart. axis [1,-1,0]  

 cryst.   s( 8) = (     0          1          0      )
                  (     1          0          0      )
                  (     0          0          1      )

 cart.    s( 8) = (  0.0000000  1.0000000  0.0000000 )
                  (  1.0000000  0.0000000  0.0000000 )
                  (  0.0000000  0.0000000  1.0000000 )


     point group C_4v (4mm) 
     there are  5 classes
     the character table:

       E     2C4   C2    2s_v  2s_d 
A_1    1.00  1.00  1.00  1.00  1.00
A_2    1.00  1.00  1.00 -1.00 -1.00
B_1    1.00 -1.00  1.00  1.00 -1.00
B_2    1.00 -1.00  1.00 -1.00  1.00
E      2.00  0.00 -2.00  0.00  0.00

     the symmetry operations in each class and the name of the first element:

     E        1
          identity                                               
     2C4      3    4
           90 deg rotation - cart. axis [0,0,-1]                 
     C2       2
          180 deg rotation - cart. axis [0,0,1]                  
     2s_v     5    6
          inv. 180 deg rotation - cart. axis [0,1,0]             
     2s_d     7    8
          inv. 180 deg rotation - cart. axis [1,1,0]             

   Cartesian axes

     site n.     atom                  positions (alat units)
         1           Ag  tau(   1) = (   0.0000000   0.0000000   0.0000000  )
         2           Ag  tau(   2) = (   0.0000000   0.2499999   0.2499999  )
         3           Ag  tau(   3) = (   0.2499999   0.0000000   0.2499999  )
         4           Ag  tau(   4) = (   0.2499999   0.2499999   0.0000000  )
         5           Ag  tau(   5) = (   0.0000000   0.4999998   0.0000000  )
         6           Ag  tau(   6) = (   0.0000000   0.7499996   0.2499999  )
         7           Ag  tau(   7) = (   0.2499999   0.4999998   0.2499999  )
         8           Ag  tau(   8) = (   0.2499999   0.7499996   0.0000000  )
         9           Ag  tau(   9) = (   0.4999998   0.0000000   0.0000000  )
        10           Ag  tau(  10) = (   0.4999998   0.2499999   0.2499999  )
        11           Ag  tau(  11) = (   0.7499996   0.0000000   0.2499999  )
        12           Ag  tau(  12) = (   0.7499996   0.2499999   0.0000000  )
        13           Ag  tau(  13) = (   0.4999998   0.4999998   0.0000000  )
        14           Ag  tau(  14) = (   0.4999998   0.7499996   0.2499999  )
        15           Ag  tau(  15) = (   0.7499996   0.4999998   0.2499999  )
        16           Ag  tau(  16) = (   0.7499996   0.7499996   0.0000000  )

   Crystallographic axes

     site n.     atom                  positions (cryst. coord.)
         1           Ag  tau(   1) = (  0.0000000  0.0000000  0.0000000  )
         2           Ag  tau(   2) = (  0.0000000  0.2499999  0.1469063  )
         3           Ag  tau(   3) = (  0.2499999  0.0000000  0.1469063  )
         4           Ag  tau(   4) = (  0.2499999  0.2499999  0.0000000  )
         5           Ag  tau(   5) = (  0.0000000  0.4999998  0.0000000  )
         6           Ag  tau(   6) = (  0.0000000  0.7499996  0.1469063  )
         7           Ag  tau(   7) = (  0.2499999  0.4999998  0.1469063  )
         8           Ag  tau(   8) = (  0.2499999  0.7499996  0.0000000  )
         9           Ag  tau(   9) = (  0.4999998  0.0000000  0.0000000  )
        10           Ag  tau(  10) = (  0.4999998  0.2499999  0.1469063  )
        11           Ag  tau(  11) = (  0.7499996  0.0000000  0.1469063  )
        12           Ag  tau(  12) = (  0.7499996  0.2499999  0.0000000  )
        13           Ag  tau(  13) = (  0.4999998  0.4999998  0.0000000  )
        14           Ag  tau(  14) = (  0.4999998  0.7499996  0.1469063  )
        15           Ag  tau(  15) = (  0.7499996  0.4999998  0.1469063  )
        16           Ag  tau(  16) = (  0.7499996  0.7499996  0.0000000  )

     number of k points=    15  Gaussian smearing, width (Ry)=  0.0030
                       cart. coord. in units 2pi/alat
        k(    1) = (   0.0000000   0.0000000   0.0000000), wk =   0.0312500
        k(    2) = (   0.0000000   0.1250000   0.0000000), wk =   0.1250000
        k(    3) = (   0.0000000   0.2500000   0.0000000), wk =   0.1250000
        k(    4) = (   0.0000000   0.3750000   0.0000000), wk =   0.1250000
        k(    5) = (   0.0000000  -0.5000000   0.0000000), wk =   0.0625000
        k(    6) = (   0.1250000   0.1250000   0.0000000), wk =   0.1250000
        k(    7) = (   0.1250000   0.2500000   0.0000000), wk =   0.2500000
        k(    8) = (   0.1250000   0.3750000   0.0000000), wk =   0.2500000
        k(    9) = (   0.1250000  -0.5000000   0.0000000), wk =   0.1250000
        k(   10) = (   0.2500000   0.2500000   0.0000000), wk =   0.1250000
        k(   11) = (   0.2500000   0.3750000   0.0000000), wk =   0.2500000
        k(   12) = (   0.2500000  -0.5000000   0.0000000), wk =   0.1250000
        k(   13) = (   0.3750000   0.3750000   0.0000000), wk =   0.1250000
        k(   14) = (   0.3750000  -0.5000000   0.0000000), wk =   0.1250000
        k(   15) = (  -0.5000000  -0.5000000   0.0000000), wk =   0.0312500

                       cryst. coord.
        k(    1) = (   0.0000000   0.0000000   0.0000000), wk =   0.0312500
        k(    2) = (   0.0000000   0.1250000   0.0000000), wk =   0.1250000
        k(    3) = (   0.0000000   0.2500000   0.0000000), wk =   0.1250000
        k(    4) = (   0.0000000   0.3750000   0.0000000), wk =   0.1250000
        k(    5) = (   0.0000000  -0.5000000   0.0000000), wk =   0.0625000
        k(    6) = (   0.1250000   0.1250000   0.0000000), wk =   0.1250000
        k(    7) = (   0.1250000   0.2500000   0.0000000), wk =   0.2500000
        k(    8) = (   0.1250000   0.3750000   0.0000000), wk =   0.2500000
        k(    9) = (   0.1250000  -0.5000000   0.0000000), wk =   0.1250000
        k(   10) = (   0.2500000   0.2500000   0.0000000), wk =   0.1250000
        k(   11) = (   0.2500000   0.3750000   0.0000000), wk =   0.2500000
        k(   12) = (   0.2500000  -0.5000000   0.0000000), wk =   0.1250000
        k(   13) = (   0.3750000   0.3750000   0.0000000), wk =   0.1250000
        k(   14) = (   0.3750000  -0.5000000   0.0000000), wk =   0.1250000
        k(   15) = (  -0.5000000  -0.5000000   0.0000000), wk =   0.0312500

     Dense  grid:   580679 G-vectors     FFT dimensions: (  90,  90, 150)

     Smooth grid:   146829 G-vectors     FFT dimensions: (  60,  60,  96)

     Dynamical RAM for                 wfc:       1.59 MB

     Dynamical RAM for     wfc (w. buffer):      25.46 MB

     Dynamical RAM for           str. fact:       0.28 MB

     Dynamical RAM for           local pot:       0.00 MB

     Dynamical RAM for          nlocal pot:       2.52 MB

     Dynamical RAM for                qrad:       1.39 MB

     Dynamical RAM for          rho,v,vnew:       1.76 MB

     Dynamical RAM for               rhoin:       0.59 MB

     Dynamical RAM for            rho*nmix:       4.43 MB

     Dynamical RAM for           G-vectors:       1.07 MB

     Dynamical RAM for          h,s,v(r/c):       0.24 MB

     Dynamical RAM for          <psi|beta>:       0.80 MB

     Dynamical RAM for                 psi:       3.18 MB

     Dynamical RAM for                hpsi:       3.18 MB

     Dynamical RAM for                spsi:       3.18 MB

     Dynamical RAM for      wfcinit/wfcrot:       4.63 MB

     Dynamical RAM for           addusdens:      55.92 MB

     Dynamical RAM for          addusforce:      64.43 MB

     Dynamical RAM for         addusstress:      55.65 MB

     Estimated static dynamical RAM per process >      39.59 MB

     Estimated max dynamical RAM per process >     104.02 MB

     Estimated total dynamical RAM >       3.25 GB

     Initial potential from superposition of free atoms

     starting charge  295.99924, renormalised to  304.00000

     negative rho (up, down):  5.356E-03 0.000E+00
     Starting wfcs are  208 randomized atomic wfcs

     total cpu time spent up to now is        3.2 secs

     Self-consistent Calculation

     iteration #  1     ecut=    30.00 Ry     beta= 0.30
     Davidson diagonalization with overlap
     ethr =  1.00E-02,  avg # of iterations =  7.1

     negative rho (up, down):  1.030E-04 0.000E+00

     total cpu time spent up to now is       14.5 secs

     total energy              =   -4723.00686082 Ry
     estimated scf accuracy    <      27.39692778 Ry

     iteration #  2     ecut=    30.00 Ry     beta= 0.30
     Davidson diagonalization with overlap
     ethr =  9.01E-03,  avg # of iterations =  2.0

     negative rho (up, down):  3.326E-04 0.000E+00

     total cpu time spent up to now is       22.3 secs

     total energy              =   -4729.12175475 Ry
     estimated scf accuracy    <       1.41151115 Ry

     iteration #  3     ecut=    30.00 Ry     beta= 0.30
     Davidson diagonalization with overlap
     ethr =  4.64E-04,  avg # of iterations =  2.6

     negative rho (up, down):  8.784E-04 0.000E+00

     total cpu time spent up to now is       29.7 secs

     total energy              =   -4729.27988827 Ry
     estimated scf accuracy    <       0.06797558 Ry

     iteration #  4     ecut=    30.00 Ry     beta= 0.30
     Davidson diagonalization with overlap
     ethr =  2.24E-05,  avg # of iterations =  8.1

     negative rho (up, down):  4.097E-03 0.000E+00

     total cpu time spent up to now is       40.4 secs

     total energy              =   -4729.28652560 Ry
     estimated scf accuracy    <       0.01228965 Ry

     iteration #  5     ecut=    30.00 Ry     beta= 0.30
     Davidson diagonalization with overlap
     c_bands:  1 eigenvalues not converged
     ethr =  4.04E-06,  avg # of iterations =  5.5

     negative rho (up, down):  3.903E-03 0.000E+00

     total cpu time spent up to now is       49.7 secs

     total energy              =   -4729.28738090 Ry
     estimated scf accuracy    <       0.00143823 Ry

     iteration #  6     ecut=    30.00 Ry     beta= 0.30
     Davidson diagonalization with overlap
     ethr =  4.73E-07,  avg # of iterations =  4.6

     negative rho (up, down):  4.089E-03 0.000E+00

     total cpu time spent up to now is       57.9 secs

     total energy              =   -4729.28758730 Ry
     estimated scf accuracy    <       0.00006667 Ry

     iteration #  7     ecut=    30.00 Ry     beta= 0.30
     Davidson diagonalization with overlap
     ethr =  2.19E-08,  avg # of iterations =  2.0

     negative rho (up, down):  4.363E-03 0.000E+00

     total cpu time spent up to now is       65.1 secs

     total energy              =   -4729.28760272 Ry
     estimated scf accuracy    <       0.00003794 Ry

     iteration #  8     ecut=    30.00 Ry     beta= 0.30
     Davidson diagonalization with overlap
     ethr =  1.25E-08,  avg # of iterations =  2.0

     negative rho (up, down):  4.407E-03 0.000E+00

     total cpu time spent up to now is       71.8 secs

     total energy              =   -4729.28759736 Ry
     estimated scf accuracy    <       0.00002731 Ry

     iteration #  9     ecut=    30.00 Ry     beta= 0.30
     Davidson diagonalization with overlap
     ethr =  8.98E-09,  avg # of iterations =  2.0

     negative rho (up, down):  4.458E-03 0.000E+00

     total cpu time spent up to now is       79.1 secs

     End of self-consistent calculation

          k = 0.0000 0.0000 0.0000 ( 18383 PWs)   bands (ev):

   -89.9494 -89.9428 -89.9428 -89.9428 -89.9428 -89.9406 -89.9406 -89.9406
   -89.9406 -89.9406 -89.9384 -89.9384 -89.9384 -89.9384 -89.9362 -89.9362
   -53.4670 -53.4670 -53.4643 -53.4642 -53.4642 -53.4642 -53.4348 -53.4348
   -53.4348 -53.4348 -53.4334 -53.4334 -53.4333 -53.4333 -53.4300 -53.4300
   -53.4290 -53.4216 -53.4216 -53.4216 -53.4216 -53.4026 -53.4026 -53.4026
   -53.4026 -53.3994 -53.3994 -53.3950 -53.3950 -53.3950 -53.3950 -53.3861
   -53.3861 -53.3828 -53.3828 -53.3828 -53.3828 -53.3818 -53.3817 -53.3817
   -53.3817 -53.3754 -53.3754 -53.3698 -53.3698 -53.3698 -53.3698 -53.3672
    -4.2340  -3.7535  -3.7217  -3.6120  -3.6120  -3.5420  -3.5420  -3.5420
    -3.5420  -3.4140  -3.4140  -3.1136  -3.1136  -3.1136  -3.1136  -3.1085
    -3.1085  -3.1085  -3.1085  -3.0634  -2.9931  -2.9931  -2.9931  -2.9931
    -2.7868  -2.7868  -2.7868  -2.7868  -2.6589  -2.6589  -2.6589  -2.6589
    -2.3876  -2.3876  -2.3876  -2.3876  -2.3245  -2.3245  -2.3245  -2.3245
    -2.2589  -2.2589  -2.2588  -2.2588  -2.2530  -2.2530  -2.2370  -2.2370
    -2.2370  -2.2370  -2.0760  -1.8629  -1.8629  -1.8629  -1.8629  -1.8169
    -1.8169  -1.8169  -1.8169  -1.7791  -1.7791  -1.6511  -1.6511  -1.6511
    -1.6511  -1.5878  -1.5098  -1.5098  -1.4123  -1.4123  -1.4123  -1.4123
    -1.4099  -1.4099  -1.4099  -1.4099  -1.3076  -1.3076  -1.2358  -0.8607
    -0.8606  -0.5895  -0.5895  -0.5894  -0.5894   0.1843   1.8842   1.8843
     1.8843   1.8843   2.5230   2.5230   2.5230   2.5230   3.0428   4.7948
     4.7948   4.7949   4.7949   5.1388   5.1388   5.7313   5.9266   5.9266
     5.9267   5.9267   6.1372   8.0201   8.0201   8.0204   8.0204   8.1673
     8.1673   8.1673   8.1674   8.6651   8.6651   8.6655

     occupation numbers 
     1.0000   1.0000   1.0000   1.0000   1.0000   1.0000   1.0000   1.0000
     1.0000   1.0000   1.0000   1.0000   1.0000   1.0000   1.0000   1.0000
     1.0000   1.0000   1.0000   1.0000   1.0000   1.0000   1.0000   1.0000
     1.0000   1.0000   1.0000   1.0000   1.0000   1.0000   1.0000   1.0000
     1.0000   1.0000   1.0000   1.0000   1.0000   1.0000   1.0000   1.0000
     1.0000   1.0000   1.0000   1.0000   1.0000   1.0000   1.0000   1.0000
     1.0000   1.0000   1.0000   1.0000   1.0000   1.0000   1.0000   1.0000
     1.0000   1.0000   1.0000   1.0000   1.0000   1.0000   1.0000   1.0000
     1.0000   1.0000   1.0000   1.0000   1.0000   1.0000   1.0000   1.0000
     1.0000   1.0000   1.0000   1.0000   1.0000   1.0000   1.0000   1.0000
     1.0000   1.0000   1.0000   1.0000   1.0000   1.0000   1.0000   1.0000
     1.0000   1.0000   1.0000   1.0000   1.0000   1.0000   1.0000   1.0000
     1.0000   1.0000   1.0000   1.0000   1.0000   1.0000   1.0000   1.0000
     1.0000   1.0000   1.0000   1.0000   1.0000   1.0000   1.0000   1.0000
     1.0000   1.0000   1.0000   1.0000   1.0000   1.0000   1.0000   1.0000
     1.0000   1.0000   1.0000   1.0000   1.0000   1.0000   1.0000   1.0000
     1.0000   1.0000   1.0000   1.0000   1.0000   1.0000   1.0000   1.0000
     1.0000   1.0000   1.0000   1.0000   1.0000   1.0000   1.0000   1.0000
     1.0000   1.0000   1.0000   1.0000   1.0000   1.0000   0.0000   0.0000
     0.0000   0.0000   0.0000   0.0000   0.0000   0.0000   0.0000   0.0000
     0.0000   0.0000   0.0000   0.0000   0.0000   0.0000   0.0000   0.0000
     0.0000   0.0000   0.0000   0.0000   0.0000   0.0000   0.0000   0.0000
     0.0000   0.0000   0.0000   0.0000   0.0000   0.0000

          k = 0.0000 0.1250 0.0000 ( 18389 PWs)   bands (ev):

   -89.9493 -89.9440 -89.9428 -89.9427 -89.9415 -89.9410 -89.9410 -89.9406
   -89.9402 -89.9402 -89.9388 -89.9384 -89.9384 -89.9380 -89.9363 -89.9362
   -53.4666 -53.4665 -53.4645 -53.4645 -53.4628 -53.4628 -53.4400 -53.4393
   -53.4369 -53.4369 -53.4366 -53.4365 -53.4303 -53.4302 -53.4295 -53.4289
   -53.4266 -53.4249 -53.4187 -53.4179 -53.4178 -53.4081 -53.4008 -53.4008
   -53.4004 -53.4001 -53.3966 -53.3947 -53.3946 -53.3945 -53.3936 -53.3865
   -53.3861 -53.3858 -53.3858 -53.3841 -53.3841 -53.3813 -53.3813 -53.3807
   -53.3806 -53.3758 -53.3758 -53.3723 -53.3700 -53.3699 -53.3672 -53.3669
    -4.1979  -3.7381  -3.6998  -3.5954  -3.5948  -3.5320  -3.5320  -3.5277
    -3.5276  -3.4065  -3.4060  -3.1579  -3.1547  -3.1343  -3.1342  -3.1336
    -3.1335  -3.1316  -3.1224  -3.0488  -3.0365  -3.0200  -2.9837  -2.9837
    -2.8366  -2.8242  -2.8242  -2.7383  -2.7383  -2.6491  -2.6491  -2.4773
    -2.4717  -2.4227  -2.4071  -2.4071  -2.3432  -2.3432  -2.3343  -2.3343
    -2.3215  -2.2932  -2.2932  -2.2619  -2.2614  -2.2181  -2.1977  -2.1977
    -2.1259  -2.0967  -2.0784  -1.9854  -1.8504  -1.8118  -1.8118  -1.8014
    -1.8014  -1.7905  -1.7796  -1.7566  -1.7420  -1.7033  -1.7033  -1.6121
    -1.5992  -1.5992  -1.5187  -1.5139  -1.4473  -1.4473  -1.4142  -1.4141
    -1.4071  -1.4021  -1.3937  -1.3936  -1.3165  -1.3104  -1.2479  -0.9628
    -0.9083  -0.8854  -0.5591  -0.5591  -0.0542   0.2233   1.2958   1.2958
     1.9876   2.5171   2.5172   2.5531   2.5532   3.1016   3.1299   4.3550
     4.3550   4.7810   5.2205   5.3034   5.3035   5.3414   5.7678   5.9548
     5.9549   6.1687   6.5583   7.4932   7.6898   7.9856   8.0503   8.0506
     8.1738   8.1738   8.2252   8.2253   8.2301   8.2301

     occupation numbers 
     1.0000   1.0000   1.0000   1.0000   1.0000   1.0000   1.0000   1.0000
     1.0000   1.0000   1.0000   1.0000   1.0000   1.0000   1.0000   1.0000
     1.0000   1.0000   1.0000   1.0000   1.0000   1.0000   1.0000   1.0000
     1.0000   1.0000   1.0000   1.0000   1.0000   1.0000   1.0000   1.0000
     1.0000   1.0000   1.0000   1.0000   1.0000   1.0000   1.0000   1.0000
     1.0000   1.0000   1.0000   1.0000   1.0000   1.0000   1.0000   1.0000
     1.0000   1.0000   1.0000   1.0000   1.0000   1.0000   1.0000   1.0000
     1.0000   1.0000   1.0000   1.0000   1.0000   1.0000   1.0000   1.0000
     1.0000   1.0000   1.0000   1.0000   1.0000   1.0000   1.0000   1.0000
     1.0000   1.0000   1.0000   1.0000   1.0000   1.0000   1.0000   1.0000
     1.0000   1.0000   1.0000   1.0000   1.0000   1.0000   1.0000   1.0000
     1.0000   1.0000   1.0000   1.0000   1.0000   1.0000   1.0000   1.0000
     1.0000   1.0000   1.0000   1.0000   1.0000   1.0000   1.0000   1.0000
     1.0000   1.0000   1.0000   1.0000   1.0000   1.0000   1.0000   1.0000
     1.0000   1.0000   1.0000   1.0000   1.0000   1.0000   1.0000   1.0000
     1.0000   1.0000   1.0000   1.0000   1.0000   1.0000   1.0000   1.0000
     1.0000   1.0000   1.0000   1.0000   1.0000   1.0000   1.0000   1.0000
     1.0000   1.0000   1.0000   1.0000   1.0000   1.0000   1.0000   1.0000
     1.0000   1.0000   1.0000   1.0000   1.0000   1.0000   1.0000   1.0000
     0.0000   0.0000   0.0000   0.0000   0.0000   0.0000   0.0000   0.0000
     0.0000   0.0000   0.0000   0.0000   0.0000   0.0000   0.0000   0.0000
     0.0000   0.0000   0.0000   0.0000   0.0000   0.0000   0.0000   0.0000
     0.0000   0.0000   0.0000   0.0000   0.0000   0.0000

          k = 0.0000 0.2500 0.0000 ( 18325 PWs)   bands (ev):

   -89.9489 -89.9453 -89.9426 -89.9426 -89.9414 -89.9414 -89.9405 -89.9403
   -89.9398 -89.9397 -89.9392 -89.9386 -89.9385 -89.9375 -89.9367 -89.9364
   -53.4645 -53.4635 -53.4623 -53.4623 -53.4597 -53.4597 -53.4459 -53.4444
   -53.4432 -53.4432 -53.4406 -53.4406 -53.4304 -53.4283 -53.4282 -53.4279
   -53.4264 -53.4205 -53.4158 -53.4125 -53.4107 -53.4107 -53.4021 -53.4017
   -53.3979 -53.3979 -53.3930 -53.3927 -53.3927 -53.3915 -53.3909 -53.3879
   -53.3879 -53.3872 -53.3871 -53.3870 -53.3847 -53.3817 -53.3817 -53.3780
   -53.3780 -53.3774 -53.3772 -53.3747 -53.3707 -53.3707 -53.3666 -53.3657
    -4.0914  -3.6916  -3.6349  -3.5455  -3.5433  -3.4968  -3.4968  -3.4881
    -3.4881  -3.3822  -3.3816  -3.2654  -3.2496  -3.2200  -3.1991  -3.1991
    -3.1892  -3.1892  -3.1710  -3.1276  -3.1174  -3.0062  -3.0045  -2.9605
    -2.9605  -2.8525  -2.8525  -2.6786  -2.6786  -2.6183  -2.6183  -2.5795
    -2.4749  -2.4374  -2.4374  -2.3802  -2.3802  -2.3711  -2.3711  -2.3655
    -2.3655  -2.3609  -2.3007  -2.2883  -2.2849  -2.1118  -2.1118  -2.0861
    -2.0775  -2.0256  -1.9922  -1.9563  -1.8272  -1.8181  -1.7810  -1.7600
    -1.7600  -1.7578  -1.7578  -1.7025  -1.7025  -1.6835  -1.6778  -1.6413
    -1.5478  -1.5478  -1.5472  -1.5261  -1.4998  -1.4998  -1.4211  -1.4211
    -1.3994  -1.3994  -1.3848  -1.3729  -1.3360  -1.3178  -1.2837  -1.1825
    -1.0432  -0.9563  -0.4623  -0.4622   0.3395   0.6127   0.7761   0.7761
     1.5216   2.6434   2.6435   3.0780   3.0780   3.2728   3.8092   4.0020
     4.1194   4.1195   4.8048   5.4572   5.8032   5.8033   5.8771   6.0342
     6.0343   6.2634   7.0314   7.1457   7.1852   7.1856   7.2343   7.2765
     7.9333   7.9334   8.1350   8.1355   8.3005   8.3009

     occupation numbers 
     1.0000   1.0000   1.0000   1.0000   1.0000   1.0000   1.0000   1.0000
     1.0000   1.0000   1.0000   1.0000   1.0000   1.0000   1.0000   1.0000
     1.0000   1.0000   1.0000   1.0000   1.0000   1.0000   1.0000   1.0000
     1.0000   1.0000   1.0000   1.0000   1.0000   1.0000   1.0000   1.0000
     1.0000   1.0000   1.0000   1.0000   1.0000   1.0000   1.0000   1.0000
     1.0000   1.0000   1.0000   1.0000   1.0000   1.0000   1.0000   1.0000
     1.0000   1.0000   1.0000   1.0000   1.0000   1.0000   1.0000   1.0000
     1.0000   1.0000   1.0000   1.0000   1.0000   1.0000   1.0000   1.0000
     1.0000   1.0000   1.0000   1.0000   1.0000   1.0000   1.0000   1.0000
     1.0000   1.0000   1.0000   1.0000   1.0000   1.0000   1.0000   1.0000
     1.0000   1.0000   1.0000   1.0000   1.0000   1.0000   1.0000   1.0000
     1.0000   1.0000   1.0000   1.0000   1.0000   1.0000   1.0000   1.0000
     1.0000   1.0000   1.0000   1.0000   1.0000   1.0000   1.0000   1.0000
     1.0000   1.0000   1.0000   1.0000   1.0000   1.0000   1.0000   1.0000
     1.0000   1.0000   1.0000   1.0000   1.0000   1.0000   1.0000   1.0000
     1.0000   1.0000   1.0000   1.0000   1.0000   1.0000   1.0000   1.0000
     1.0000   1.0000   1.0000   1.0000   1.0000   1.0000   1.0000   1.0000
     1.0000   1.0000   1.0000   1.0000   1.0000   1.0000   1.0000   1.0000
     1.0000   1.0000   1.0000   1.0000   1.0000   1.0000   1.0000   1.0000
     0.9973   0.0000   0.0000   0.0000   0.0000   0.0000   0.0000   0.0000
     0.0000   0.0000   0.0000   0.0000   0.0000   0.0000   0.0000   0.0000
     0.0000   0.0000   0.0000   0.0000   0.0000   0.0000   0.0000   0.0000
     0.0000   0.0000   0.0000   0.0000   0.0000   0.0000

          k = 0.0000 0.3750 0.0000 ( 18342 PWs)   bands (ev):

   -89.9482 -89.9464 -89.9424 -89.9424 -89.9418 -89.9418 -89.9403 -89.9397
   -89.9394 -89.9393 -89.9391 -89.9388 -89.9387 -89.9373 -89.9372 -89.9366
   -53.4615 -53.4608 -53.4596 -53.4596 -53.4559 -53.4559 -53.4519 -53.4509
   -53.4501 -53.4501 -53.4455 -53.4455 -53.4297 -53.4290 -53.4280 -53.4276
   -53.4254 -53.4174 -53.4146 -53.4124 -53.4052 -53.4049 -53.4033 -53.4033
   -53.3951 -53.3951 -53.3916 -53.3914 -53.3914 -53.3905 -53.3905 -53.3899
   -53.3898 -53.3886 -53.3873 -53.3870 -53.3835 -53.3835 -53.3830 -53.3799
   -53.3796 -53.3775 -53.3755 -53.3755 -53.3719 -53.3719 -53.3658 -53.3652
    -3.9209  -3.6166  -3.5325  -3.4701  -3.4624  -3.4593  -3.4398  -3.4398
    -3.4277  -3.4277  -3.3933  -3.3427  -3.3389  -3.2962  -3.2814  -3.2814
    -3.2670  -3.2669  -3.2554  -3.2420  -3.2316  -3.1531  -2.9364  -2.9307
    -2.9307  -2.8762  -2.8762  -2.7202  -2.6101  -2.6101  -2.5688  -2.5688
    -2.4552  -2.4551  -2.4445  -2.4445  -2.4350  -2.4280  -2.4280  -2.4212
    -2.4211  -2.3636  -2.3295  -2.3150  -2.1606  -2.1010  -2.0754  -2.0121
    -2.0120  -1.9588  -1.8600  -1.8596  -1.8297  -1.8297  -1.7973  -1.7884
    -1.7549  -1.7405  -1.6983  -1.6983  -1.6203  -1.5969  -1.5876  -1.5876
    -1.5629  -1.5629  -1.5473  -1.5329  -1.5016  -1.5016  -1.4369  -1.4369
    -1.4319  -1.4319  -1.3658  -1.3507  -1.3449  -1.3304  -1.2973  -1.2951
    -1.2427  -1.0626  -0.2862  -0.2861   0.3345   0.3346   0.5305   1.1236
     1.3792   2.7916   2.7917   3.1100   3.1793   3.1793   3.5432   4.3213
     4.4796   4.4797   4.5589   5.8276   6.0590   6.1449   6.1450   6.1527
     6.1528   6.1917   6.1918   6.2459   6.4212   6.6373   6.8703   6.9274
     7.9070   7.9070   7.9493   8.2394   8.2395   8.4651

     occupation numbers 
     1.0000   1.0000   1.0000   1.0000   1.0000   1.0000   1.0000   1.0000
     1.0000   1.0000   1.0000   1.0000   1.0000   1.0000   1.0000   1.0000
     1.0000   1.0000   1.0000   1.0000   1.0000   1.0000   1.0000   1.0000
     1.0000   1.0000   1.0000   1.0000   1.0000   1.0000   1.0000   1.0000
     1.0000   1.0000   1.0000   1.0000   1.0000   1.0000   1.0000   1.0000
     1.0000   1.0000   1.0000   1.0000   1.0000   1.0000   1.0000   1.0000
     1.0000   1.0000   1.0000   1.0000   1.0000   1.0000   1.0000   1.0000
     1.0000   1.0000   1.0000   1.0000   1.0000   1.0000   1.0000   1.0000
     1.0000   1.0000   1.0000   1.0000   1.0000   1.0000   1.0000   1.0000
     1.0000   1.0000   1.0000   1.0000   1.0000   1.0000   1.0000   1.0000
     1.0000   1.0000   1.0000   1.0000   1.0000   1.0000   1.0000   1.0000
     1.0000   1.0000   1.0000   1.0000   1.0000   1.0000   1.0000   1.0000
     1.0000   1.0000   1.0000   1.0000   1.0000   1.0000   1.0000   1.0000
     1.0000   1.0000   1.0000   1.0000   1.0000   1.0000   1.0000   1.0000
     1.0000   1.0000   1.0000   1.0000   1.0000   1.0000   1.0000   1.0000
     1.0000   1.0000   1.0000   1.0000   1.0000   1.0000   1.0000   1.0000
     1.0000   1.0000   1.0000   1.0000   1.0000   1.0000   1.0000   1.0000
     1.0000   1.0000   1.0000   1.0000   1.0000   1.0000   1.0000   1.0000
     1.0000   1.0000   1.0000   1.0000   1.0000   1.0000   1.0000   1.0000
     1.0000   0.0000   0.0000   0.0000   0.0000   0.0000   0.0000   0.0000
     0.0000   0.0000   0.0000   0.0000   0.0000   0.0000   0.0000   0.0000
     0.0000   0.0000   0.0000   0.0000   0.0000   0.0000   0.0000   0.0000
     0.0000   0.0000   0.0000   0.0000   0.0000   0.0000

          k = 0.0000-0.5000 0.0000 ( 18312 PWs)   bands (ev):

   -89.9475 -89.9473 -89.9422 -89.9422 -89.9421 -89.9420 -89.9401 -89.9399
   -89.9391 -89.9391 -89.9390 -89.9390 -89.9382 -89.9381 -89.9369 -89.9368
   -53.4566 -53.4565 -53.4564 -53.4563 -53.4555 -53.4554 -53.4554 -53.4554
   -53.4509 -53.4509 -53.4508 -53.4508 -53.4297 -53.4296 -53.4273 -53.4272
   -53.4224 -53.4223 -53.4092 -53.4091 -53.4084 -53.4083 -53.3971 -53.3970
   -53.3970 -53.3970 -53.3927 -53.3927 -53.3926 -53.3926 -53.3897 -53.3896
   -53.3866 -53.3866 -53.3866 -53.3866 -53.3829 -53.3828 -53.3828 -53.3827
   -53.3802 -53.3801 -53.3735 -53.3735 -53.3734 -53.3734 -53.3650 -53.3649
    -3.7006  -3.7005  -3.5147  -3.5146  -3.4016  -3.4014  -3.3805  -3.3804
    -3.3655  -3.3655  -3.3655  -3.3654  -3.3583  -3.3581  -3.3508  -3.3508
    -3.3508  -3.3507  -3.2914  -3.2913  -3.2662  -3.2661  -2.9015  -2.9015
    -2.9014  -2.9014  -2.8399  -2.8398  -2.5428  -2.5428  -2.5427  -2.5427
    -2.4865  -2.4865  -2.4864  -2.4864  -2.4498  -2.4498  -2.4498  -2.4498
    -2.3810  -2.3808  -2.3438  -2.3437  -2.1224  -2.1223  -1.9395  -1.9394
    -1.9146  -1.9146  -1.9146  -1.9146  -1.9070  -1.9069  -1.8086  -1.8085
    -1.6693  -1.6692  -1.6310  -1.6310  -1.6309  -1.6309  -1.5784  -1.5782
    -1.4957  -1.4956  -1.4956  -1.4956  -1.4828  -1.4827  -1.4627  -1.4627
    -1.4626  -1.4626  -1.4304  -1.4302  -1.3462  -1.3461  -1.3420  -1.3420
    -1.1858  -1.1857  -0.0212  -0.0212  -0.0211  -0.0210   0.7928   0.7929
     2.2205   2.2206   2.9877   2.9877   2.9878   2.9879   3.8973   3.8974
     5.2685   5.2686   5.2686   5.2687   5.3747   5.3747   6.2298   6.2299
     6.2300   6.2300   6.3066   6.3068   6.3127   6.3127   6.6424   6.6425
     8.1648   8.1648   8.1648   8.1649   8.6913   8.6913

     occupation numbers 
     1.0000   1.0000   1.0000   1.0000   1.0000   1.0000   1.0000   1.0000
     1.0000   1.0000   1.0000   1.0000   1.0000   1.0000   1.0000   1.0000
     1.0000   1.0000   1.0000   1.0000   1.0000   1.0000   1.0000   1.0000
     1.0000   1.0000   1.0000   1.0000   1.0000   1.0000   1.0000   1.0000
     1.0000   1.0000   1.0000   1.0000   1.0000   1.0000   1.0000   1.0000
     1.0000   1.0000   1.0000   1.0000   1.0000   1.0000   1.0000   1.0000
     1.0000   1.0000   1.0000   1.0000   1.0000   1.0000   1.0000   1.0000
     1.0000   1.0000   1.0000   1.0000   1.0000   1.0000   1.0000   1.0000
     1.0000   1.0000   1.0000   1.0000   1.0000   1.0000   1.0000   1.0000
     1.0000   1.0000   1.0000   1.0000   1.0000   1.0000   1.0000   1.0000
     1.0000   1.0000   1.0000   1.0000   1.0000   1.0000   1.0000   1.0000
     1.0000   1.0000   1.0000   1.0000   1.0000   1.0000   1.0000   1.0000
     1.0000   1.0000   1.0000   1.0000   1.0000   1.0000   1.0000   1.0000
     1.0000   1.0000   1.0000   1.0000   1.0000   1.0000   1.0000   1.0000
     1.0000   1.0000   1.0000   1.0000   1.0000   1.0000   1.0000   1.0000
     1.0000   1.0000   1.0000   1.0000   1.0000   1.0000   1.0000   1.0000
     1.0000   1.0000   1.0000   1.0000   1.0000   1.0000   1.0000   1.0000
     1.0000   1.0000   1.0000   1.0000   1.0000   1.0000   1.0000   1.0000
     1.0000   1.0000   1.0000   1.0000   1.0000   1.0000   1.0000   1.0000
     0.0000   0.0000   0.0000   0.0000   0.0000   0.0000   0.0000   0.0000
     0.0000   0.0000   0.0000   0.0000   0.0000   0.0000   0.0000   0.0000
     0.0000   0.0000   0.0000   0.0000   0.0000   0.0000   0.0000   0.0000
     0.0000   0.0000   0.0000   0.0000   0.0000   0.0000

          k = 0.1250 0.1250 0.0000 ( 18381 PWs)   bands (ev):

   -89.9491 -89.9440 -89.9440 -89.9416 -89.9415 -89.9415 -89.9406 -89.9404
   -89.9404 -89.9399 -89.9388 -89.9388 -89.9380 -89.9380 -89.9364 -89.9364
   -53.4665 -53.4665 -53.4638 -53.4637 -53.4631 -53.4603 -53.4424 -53.4424
   -53.4409 -53.4409 -53.4320 -53.4320 -53.4311 -53.4311 -53.4299 -53.4299
   -53.4287 -53.4213 -53.4213 -53.4140 -53.4140 -53.4061 -53.4061 -53.4023
   -53.3992 -53.3973 -53.3973 -53.3943 -53.3943 -53.3920 -53.3920 -53.3883
   -53.3867 -53.3866 -53.3850 -53.3850 -53.3842 -53.3824 -53.3824 -53.3796
   -53.3785 -53.3774 -53.3756 -53.3723 -53.3723 -53.3679 -53.3679 -53.3670
    -4.1631  -3.7327  -3.6682  -3.5784  -3.5784  -3.5389  -3.5304  -3.5021
    -3.5021  -3.3988  -3.3988  -3.1945  -3.1945  -3.1654  -3.1654  -3.1605
    -3.1605  -3.1396  -3.1396  -3.0339  -3.0236  -3.0236  -3.0007  -3.0007
    -2.8668  -2.8259  -2.8259  -2.7682  -2.7682  -2.6981  -2.4704  -2.4704
    -2.4681  -2.4681  -2.4238  -2.4238  -2.3932  -2.3932  -2.3187  -2.2988
    -2.2988  -2.2951  -2.2915  -2.2778  -2.2778  -2.2492  -2.1464  -2.1464
    -2.0811  -2.0681  -2.0681  -1.9391  -1.9391  -1.8271  -1.8271  -1.7959
    -1.7903  -1.7903  -1.7297  -1.7297  -1.7215  -1.7215  -1.6320  -1.6165
    -1.6165  -1.5850  -1.5251  -1.5250  -1.4622  -1.4482  -1.4481  -1.4070
    -1.4070  -1.4038  -1.4038  -1.3549  -1.3506  -1.2901  -1.2585  -0.9495
    -0.9495  -0.9319  -0.9318  -0.0078  -0.0078   0.2614   0.6778   1.9854
     1.9854   2.0161   2.0161   2.9531   3.1593   3.1627   3.1627   4.0726
     4.8583   4.8583   4.8700   4.8700   5.3745   5.3745   5.7122   5.8042
     6.2002   6.5799   6.5799   7.5261   7.5261   7.5697   7.5697   7.7223
     7.7223   7.8802   8.6333   8.6333   8.7221   8.7228

     occupation numbers 
     1.0000   1.0000   1.0000   1.0000   1.0000   1.0000   1.0000   1.0000
     1.0000   1.0000   1.0000   1.0000   1.0000   1.0000   1.0000   1.0000
     1.0000   1.0000   1.0000   1.0000   1.0000   1.0000   1.0000   1.0000
     1.0000   1.0000   1.0000   1.0000   1.0000   1.0000   1.0000   1.0000
     1.0000   1.0000   1.0000   1.0000   1.0000   1.0000   1.0000   1.0000
     1.0000   1.0000   1.0000   1.0000   1.0000   1.0000   1.0000   1.0000
     1.0000   1.0000   1.0000   1.0000   1.0000   1.0000   1.0000   1.0000
     1.0000   1.0000   1.0000   1.0000   1.0000   1.0000   1.0000   1.0000
     1.0000   1.0000   1.0000   1.0000   1.0000   1.0000   1.0000   1.0000
     1.0000   1.0000   1.0000   1.0000   1.0000   1.0000   1.0000   1.0000
     1.0000   1.0000   1.0000   1.0000   1.0000   1.0000   1.0000   1.0000
     1.0000   1.0000   1.0000   1.0000   1.0000   1.0000   1.0000   1.0000
     1.0000   1.0000   1.0000   1.0000   1.0000   1.0000   1.0000   1.0000
     1.0000   1.0000   1.0000   1.0000   1.0000   1.0000   1.0000   1.0000
     1.0000   1.0000   1.0000   1.0000   1.0000   1.0000   1.0000   1.0000
     1.0000   1.0000   1.0000   1.0000   1.0000   1.0000   1.0000   1.0000
     1.0000   1.0000   1.0000   1.0000   1.0000   1.0000   1.0000   1.0000
     1.0000   1.0000   1.0000   1.0000   1.0000   1.0000   1.0000   1.0000
     1.0000   1.0000   1.0000   1.0000   1.0000   1.0000   1.0000   0.0000
     0.0000   0.0000   0.0000   0.0000   0.0000   0.0000   0.0000   0.0000
     0.0000   0.0000   0.0000   0.0000   0.0000   0.0000   0.0000   0.0000
     0.0000   0.0000   0.0000   0.0000   0.0000   0.0000   0.0000   0.0000
     0.0000   0.0000   0.0000   0.0000   0.0000   0.0000

          k = 0.1250 0.2500 0.0000 ( 18356 PWs)   bands (ev):

   -89.9488 -89.9452 -89.9438 -89.9422 -89.9414 -89.9407 -89.9404 -89.9403
   -89.9398 -89.9396 -89.9392 -89.9389 -89.9382 -89.9376 -89.9367 -89.9365
   -53.4644 -53.4634 -53.4633 -53.4623 -53.4602 -53.4564 -53.4484 -53.4481
   -53.4461 -53.4452 -53.4380 -53.4359 -53.4291 -53.4291 -53.4284 -53.4279
   -53.4258 -53.4240 -53.4149 -53.4117 -53.4100 -53.4066 -53.4058 -53.4023
   -53.3993 -53.3969 -53.3942 -53.3939 -53.3930 -53.3905 -53.3888 -53.3884
   -53.3877 -53.3873 -53.3868 -53.3865 -53.3852 -53.3845 -53.3804 -53.3799
   -53.3792 -53.3760 -53.3758 -53.3752 -53.3732 -53.3685 -53.3665 -53.3664
    -4.0610  -3.7014  -3.5908  -3.5288  -3.5273  -3.5224  -3.5089  -3.4572
    -3.4530  -3.3755  -3.3754  -3.3061  -3.2767  -3.2683  -3.2321  -3.2235
    -3.1989  -3.1864  -3.1835  -3.1104  -3.0773  -2.9936  -2.9886  -2.9878
    -2.9710  -2.8968  -2.7941  -2.7921  -2.7009  -2.6476  -2.5459  -2.4815
    -2.4599  -2.4540  -2.4528  -2.4473  -2.4361  -2.3638  -2.3388  -2.3336
    -2.3223  -2.2952  -2.2875  -2.2535  -2.2529  -2.2382  -2.1043  -2.0897
    -2.0546  -2.0038  -1.9811  -1.9573  -1.8885  -1.8168  -1.8096  -1.7905
    -1.7773  -1.7702  -1.6964  -1.6952  -1.6698  -1.6574  -1.6505  -1.6334
    -1.5646  -1.5586  -1.5451  -1.5419  -1.5106  -1.4930  -1.4601  -1.4219
    -1.4003  -1.3968  -1.3890  -1.3658  -1.3430  -1.2922  -1.2828  -1.1752
    -1.0586  -0.9956  -0.9045   0.1303   0.1422   0.3754   0.6694   1.4847
     1.5497   2.1024   2.7281   2.9572   3.2593   3.3275   3.8451   4.0744
     4.3666   4.4840   4.8423   5.0814   5.4691   5.4710   5.9134   5.9636
     6.2949   6.5836   6.6325   6.9645   7.0657   7.2281   7.2437   7.3086
     7.6228   7.7974   7.8108   7.8318   8.3364   8.6752

     occupation numbers 
     1.0000   1.0000   1.0000   1.0000   1.0000   1.0000   1.0000   1.0000
     1.0000   1.0000   1.0000   1.0000   1.0000   1.0000   1.0000   1.0000
     1.0000   1.0000   1.0000   1.0000   1.0000   1.0000   1.0000   1.0000
     1.0000   1.0000   1.0000   1.0000   1.0000   1.0000   1.0000   1.0000
     1.0000   1.0000   1.0000   1.0000   1.0000   1.0000   1.0000   1.0000
     1.0000   1.0000   1.0000   1.0000   1.0000   1.0000   1.0000   1.0000
     1.0000   1.0000   1.0000   1.0000   1.0000   1.0000   1.0000   1.0000
     1.0000   1.0000   1.0000   1.0000   1.0000   1.0000   1.0000   1.0000
     1.0000   1.0000   1.0000   1.0000   1.0000   1.0000   1.0000   1.0000
     1.0000   1.0000   1.0000   1.0000   1.0000   1.0000   1.0000   1.0000
     1.0000   1.0000   1.0000   1.0000   1.0000   1.0000   1.0000   1.0000
     1.0000   1.0000   1.0000   1.0000   1.0000   1.0000   1.0000   1.0000
     1.0000   1.0000   1.0000   1.0000   1.0000   1.0000   1.0000   1.0000
     1.0000   1.0000   1.0000   1.0000   1.0000   1.0000   1.0000   1.0000
     1.0000   1.0000   1.0000   1.0000   1.0000   1.0000   1.0000   1.0000
     1.0000   1.0000   1.0000   1.0000   1.0000   1.0000   1.0000   1.0000
     1.0000   1.0000   1.0000   1.0000   1.0000   1.0000   1.0000   1.0000
     1.0000   1.0000   1.0000   1.0000   1.0000   1.0000   1.0000   1.0000
     1.0000   1.0000   1.0000   1.0000   1.0000   1.0000   1.0000   1.0000
     0.9652   0.0000   0.0000   0.0000   0.0000   0.0000   0.0000   0.0000
     0.0000   0.0000   0.0000   0.0000   0.0000   0.0000   0.0000   0.0000
     0.0000   0.0000   0.0000   0.0000   0.0000   0.0000   0.0000   0.0000
     0.0000   0.0000   0.0000   0.0000   0.0000   0.0000

          k = 0.1250 0.3750 0.0000 ( 18343 PWs)   bands (ev):

   -89.9481 -89.9463 -89.9435 -89.9427 -89.9413 -89.9409 -89.9402 -89.9397
   -89.9394 -89.9393 -89.9391 -89.9390 -89.9385 -89.9374 -89.9373 -89.9367
   -53.4614 -53.4610 -53.4609 -53.4587 -53.4561 -53.4535 -53.4530 -53.4520
   -53.4517 -53.4498 -53.4452 -53.4412 -53.4287 -53.4285 -53.4280 -53.4268
   -53.4249 -53.4207 -53.4168 -53.4101 -53.4072 -53.4065 -53.4006 -53.4004
   -53.3968 -53.3963 -53.3934 -53.3927 -53.3922 -53.3916 -53.3904 -53.3902
   -53.3889 -53.3884 -53.3874 -53.3850 -53.3836 -53.3834 -53.3831 -53.3797
   -53.3780 -53.3779 -53.3772 -53.3743 -53.3732 -53.3698 -53.3660 -53.3655
    -3.8987  -3.6386  -3.4834  -3.4798  -3.4694  -3.4647  -3.4547  -3.4470
    -3.4320  -3.3952  -3.3893  -3.3500  -3.3382  -3.3329  -3.3185  -3.2926
    -3.2522  -3.2515  -3.2460  -3.2162  -3.2024  -3.1432  -2.9488  -2.9366
    -2.9168  -2.9118  -2.8272  -2.7360  -2.6773  -2.6417  -2.5898  -2.5149
    -2.4888  -2.4781  -2.4646  -2.4367  -2.4272  -2.4012  -2.3817  -2.3682
    -2.3495  -2.3301  -2.3099  -2.2735  -2.1601  -2.1571  -2.1054  -2.0690
    -1.9791  -1.9678  -1.8906  -1.8879  -1.8569  -1.8488  -1.8016  -1.7970
    -1.7108  -1.6999  -1.6476  -1.6434  -1.6414  -1.6368  -1.6204  -1.5974
    -1.5713  -1.5698  -1.5394  -1.5376  -1.5290  -1.5187  -1.4553  -1.4414
    -1.4126  -1.4038  -1.3990  -1.3676  -1.3496  -1.2947  -1.2867  -1.2724
    -1.2432  -1.0904  -0.8076  -0.2966   0.3562   0.5633   1.0408   1.1522
     1.4419   2.2477   2.7055   3.1793   3.4121   3.4267   3.5938   4.2619
     4.3630   4.5985   5.0625   5.4261   5.5993   5.6211   5.9582   6.0715
     6.0950   6.3103   6.3965   6.4528   6.6635   6.6725   6.8298   6.9593
     7.7752   7.9269   7.9635   7.9825   8.0928   8.4983

     occupation numbers 
     1.0000   1.0000   1.0000   1.0000   1.0000   1.0000   1.0000   1.0000
     1.0000   1.0000   1.0000   1.0000   1.0000   1.0000   1.0000   1.0000
     1.0000   1.0000   1.0000   1.0000   1.0000   1.0000   1.0000   1.0000
     1.0000   1.0000   1.0000   1.0000   1.0000   1.0000   1.0000   1.0000
     1.0000   1.0000   1.0000   1.0000   1.0000   1.0000   1.0000   1.0000
     1.0000   1.0000   1.0000   1.0000   1.0000   1.0000   1.0000   1.0000
     1.0000   1.0000   1.0000   1.0000   1.0000   1.0000   1.0000   1.0000
     1.0000   1.0000   1.0000   1.0000   1.0000   1.0000   1.0000   1.0000
     1.0000   1.0000   1.0000   1.0000   1.0000   1.0000   1.0000   1.0000
     1.0000   1.0000   1.0000   1.0000   1.0000   1.0000   1.0000   1.0000
     1.0000   1.0000   1.0000   1.0000   1.0000   1.0000   1.0000   1.0000
     1.0000   1.0000   1.0000   1.0000   1.0000   1.0000   1.0000   1.0000
     1.0000   1.0000   1.0000   1.0000   1.0000   1.0000   1.0000   1.0000
     1.0000   1.0000   1.0000   1.0000   1.0000   1.0000   1.0000   1.0000
     1.0000   1.0000   1.0000   1.0000   1.0000   1.0000   1.0000   1.0000
     1.0000   1.0000   1.0000   1.0000   1.0000   1.0000   1.0000   1.0000
     1.0000   1.0000   1.0000   1.0000   1.0000   1.0000   1.0000   1.0000
     1.0000   1.0000   1.0000   1.0000   1.0000   1.0000   1.0000   1.0000
     1.0000   1.0000   1.0000   1.0000   1.0000   1.0000   1.0000   1.0000
     1.0000   0.0000   0.0000   0.0000   0.0000   0.0000   0.0000   0.0000
     0.0000   0.0000   0.0000   0.0000   0.0000   0.0000   0.0000   0.0000
     0.0000   0.0000   0.0000   0.0000   0.0000   0.0000   0.0000   0.0000
     0.0000   0.0000   0.0000   0.0000   0.0000   0.0000

          k = 0.1250-0.5000 0.0000 ( 18342 PWs)   bands (ev):

   -89.9474 -89.9472 -89.9432 -89.9431 -89.9412 -89.9410 -89.9401 -89.9399
   -89.9393 -89.9391 -89.9389 -89.9388 -89.9382 -89.9381 -89.9371 -89.9369
   -53.4581 -53.4580 -53.4580 -53.4580 -53.4570 -53.4569 -53.4546 -53.4545
   -53.4514 -53.4514 -53.4467 -53.4466 -53.4286 -53.4285 -53.4281 -53.4280
   -53.4210 -53.4208 -53.4151 -53.4151 -53.4035 -53.4035 -53.3998 -53.3998
   -53.3948 -53.3947 -53.3947 -53.3947 -53.3918 -53.3918 -53.3905 -53.3903
   -53.3900 -53.3899 -53.3864 -53.3864 -53.3820 -53.3820 -53.3808 -53.3807
   -53.3796 -53.3796 -53.3759 -53.3757 -53.3713 -53.3711 -53.3657 -53.3655
    -3.6920  -3.6918  -3.5468  -3.5467  -3.4243  -3.4242  -3.3995  -3.3995
    -3.3697  -3.3696  -3.3455  -3.3454  -3.3453  -3.3452  -3.3244  -3.3243
    -3.3194  -3.3193  -3.2882  -3.2881  -3.2595  -3.2594  -2.9323  -2.9322
    -2.8780  -2.8779  -2.8059  -2.8057  -2.6687  -2.6686  -2.5309  -2.5308
    -2.4828  -2.4828  -2.4718  -2.4717  -2.4278  -2.4277  -2.3892  -2.3891
    -2.3523  -2.3521  -2.3023  -2.3023  -2.1270  -2.1269  -2.0688  -2.0688
    -1.9387  -1.9386  -1.9042  -1.9041  -1.8240  -1.8239  -1.7941  -1.7941
    -1.7179  -1.7179  -1.6327  -1.6326  -1.6040  -1.6039  -1.5921  -1.5920
    -1.5490  -1.5490  -1.5341  -1.5341  -1.4521  -1.4520  -1.4312  -1.4311
    -1.4291  -1.4290  -1.4233  -1.4232  -1.4126  -1.4126  -1.2918  -1.2917
    -1.1972  -1.1972  -0.6162  -0.6161   0.6623   0.6624   0.8230   0.8231
     2.2870   2.2871   2.4517   2.4519   3.5803   3.5804   3.9434   3.9435
     4.7086   4.7087   5.4130   5.4130   5.8022   5.8023   5.8867   5.8869
     5.9030   5.9031   6.3484   6.3484   6.5207   6.5208   6.6741   6.6742
     7.9471   7.9471   8.1254   8.1254   8.2104   8.2105

     occupation numbers 
     1.0000   1.0000   1.0000   1.0000   1.0000   1.0000   1.0000   1.0000
     1.0000   1.0000   1.0000   1.0000   1.0000   1.0000   1.0000   1.0000
     1.0000   1.0000   1.0000   1.0000   1.0000   1.0000   1.0000   1.0000
     1.0000   1.0000   1.0000   1.0000   1.0000   1.0000   1.0000   1.0000
     1.0000   1.0000   1.0000   1.0000   1.0000   1.0000   1.0000   1.0000
     1.0000   1.0000   1.0000   1.0000   1.0000   1.0000   1.0000   1.0000
     1.0000   1.0000   1.0000   1.0000   1.0000   1.0000   1.0000   1.0000
     1.0000   1.0000   1.0000   1.0000   1.0000   1.0000   1.0000   1.0000
     1.0000   1.0000   1.0000   1.0000   1.0000   1.0000   1.0000   1.0000
     1.0000   1.0000   1.0000   1.0000   1.0000   1.0000   1.0000   1.0000
     1.0000   1.0000   1.0000   1.0000   1.0000   1.0000   1.0000   1.0000
     1.0000   1.0000   1.0000   1.0000   1.0000   1.0000   1.0000   1.0000
     1.0000   1.0000   1.0000   1.0000   1.0000   1.0000   1.0000   1.0000
     1.0000   1.0000   1.0000   1.0000   1.0000   1.0000   1.0000   1.0000
     1.0000   1.0000   1.0000   1.0000   1.0000   1.0000   1.0000   1.0000
     1.0000   1.0000   1.0000   1.0000   1.0000   1.0000   1.0000   1.0000
     1.0000   1.0000   1.0000   1.0000   1.0000   1.0000   1.0000   1.0000
     1.0000   1.0000   1.0000   1.0000   1.0000   1.0000   1.0000   1.0000
     1.0000   1.0000   1.0000   1.0000   1.0000   1.0000   1.0000   1.0000
     0.0000   0.0000   0.0000   0.0000   0.0000   0.0000   0.0000   0.0000
     0.0000   0.0000   0.0000   0.0000   0.0000   0.0000   0.0000   0.0000
     0.0000   0.0000   0.0000   0.0000   0.0000   0.0000   0.0000   0.0000
     0.0000   0.0000   0.0000   0.0000   0.0000   0.0000

          k = 0.2500 0.2500 0.0000 ( 18375 PWs)   bands (ev):

   -89.9484 -89.9450 -89.9450 -89.9429 -89.9404 -89.9403 -89.9402 -89.9399
   -89.9399 -89.9396 -89.9393 -89.9392 -89.9379 -89.9379 -89.9369 -89.9368
   -53.4628 -53.4628 -53.4627 -53.4627 -53.4571 -53.4531 -53.4527 -53.4527
   -53.4496 -53.4496 -53.4326 -53.4326 -53.4322 -53.4322 -53.4287 -53.4267
   -53.4267 -53.4182 -53.4182 -53.4110 -53.4079 -53.4079 -53.4035 -53.4035
   -53.3980 -53.3959 -53.3959 -53.3930 -53.3925 -53.3925 -53.3912 -53.3912
   -53.3874 -53.3862 -53.3862 -53.3838 -53.3838 -53.3834 -53.3828 -53.3828
   -53.3781 -53.3758 -53.3758 -53.3756 -53.3740 -53.3670 -53.3670 -53.3666
    -3.9726  -3.6929  -3.5309  -3.5126  -3.4976  -3.4799  -3.4799  -3.4073
    -3.4073  -3.3755  -3.3755  -3.3550  -3.3550  -3.3379  -3.3379  -3.2370
    -3.2370  -3.2131  -3.2131  -3.0656  -3.0656  -3.0162  -3.0162  -2.9581
    -2.9581  -2.9320  -2.9252  -2.7383  -2.7383  -2.6046  -2.5146  -2.5146
    -2.4900  -2.4900  -2.4743  -2.4743  -2.3885  -2.2944  -2.2944  -2.2889
    -2.2755  -2.2755  -2.2390  -2.2291  -2.2212  -2.2212  -2.1170  -2.1170
    -2.1004  -2.0213  -1.9639  -1.9639  -1.9073  -1.9073  -1.8151  -1.8151
    -1.7365  -1.6909  -1.6909  -1.6534  -1.6534  -1.6108  -1.6108  -1.5909
    -1.5909  -1.5904  -1.5904  -1.5773  -1.4985  -1.4942  -1.4942  -1.4517
    -1.4265  -1.4265  -1.3554  -1.3554  -1.3196  -1.3066  -1.2614  -1.1582
    -1.1582  -1.1023  -1.1023  -0.4088   0.4831   0.8333   0.8333   1.6349
     1.6349   2.2619   2.2619   2.6048   3.4876   3.9501   3.9501   4.2827
     4.2827   4.9526   4.9526   4.9926   5.0955   5.0956   5.8654   6.0176
     6.0176   6.0222   6.3897   7.1678   7.1678   7.2370   7.2370   7.3931
     7.3931   7.4050   7.4051   7.8961   8.4402   8.4976

     occupation numbers 
     1.0000   1.0000   1.0000   1.0000   1.0000   1.0000   1.0000   1.0000
     1.0000   1.0000   1.0000   1.0000   1.0000   1.0000   1.0000   1.0000
     1.0000   1.0000   1.0000   1.0000   1.0000   1.0000   1.0000   1.0000
     1.0000   1.0000   1.0000   1.0000   1.0000   1.0000   1.0000   1.0000
     1.0000   1.0000   1.0000   1.0000   1.0000   1.0000   1.0000   1.0000
     1.0000   1.0000   1.0000   1.0000   1.0000   1.0000   1.0000   1.0000
     1.0000   1.0000   1.0000   1.0000   1.0000   1.0000   1.0000   1.0000
     1.0000   1.0000   1.0000   1.0000   1.0000   1.0000   1.0000   1.0000
     1.0000   1.0000   1.0000   1.0000   1.0000   1.0000   1.0000   1.0000
     1.0000   1.0000   1.0000   1.0000   1.0000   1.0000   1.0000   1.0000
     1.0000   1.0000   1.0000   1.0000   1.0000   1.0000   1.0000   1.0000
     1.0000   1.0000   1.0000   1.0000   1.0000   1.0000   1.0000   1.0000
     1.0000   1.0000   1.0000   1.0000   1.0000   1.0000   1.0000   1.0000
     1.0000   1.0000   1.0000   1.0000   1.0000   1.0000   1.0000   1.0000
     1.0000   1.0000   1.0000   1.0000   1.0000   1.0000   1.0000   1.0000
     1.0000   1.0000   1.0000   1.0000   1.0000   1.0000   1.0000   1.0000
     1.0000   1.0000   1.0000   1.0000   1.0000   1.0000   1.0000   1.0000
     1.0000   1.0000   1.0000   1.0000   1.0000   1.0000   1.0000   1.0000
     1.0000   1.0000   1.0000   1.0000   1.0000   1.0000   1.0000   0.1276
     0.1276   0.0000   0.0000   0.0000   0.0000   0.0000   0.0000   0.0000
     0.0000   0.0000   0.0000   0.0000   0.0000   0.0000   0.0000   0.0000
     0.0000   0.0000   0.0000   0.0000   0.0000   0.0000   0.0000   0.0000
     0.0000   0.0000   0.0000   0.0000   0.0000   0.0000

          k = 0.2500 0.3750 0.0000 ( 18377 PWs)   bands (ev):

   -89.9478 -89.9461 -89.9446 -89.9436 -89.9402 -89.9402 -89.9400 -89.9397
   -89.9395 -89.9393 -89.9393 -89.9391 -89.9382 -89.9376 -89.9374 -89.9370
   -53.4616 -53.4616 -53.4609 -53.4608 -53.4570 -53.4566 -53.4543 -53.4538
   -53.4526 -53.4474 -53.4400 -53.4368 -53.4301 -53.4283 -53.4274 -53.4260
   -53.4237 -53.4216 -53.4157 -53.4134 -53.4113 -53.4031 -53.4010 -53.3980
   -53.3975 -53.3965 -53.3965 -53.3948 -53.3939 -53.3937 -53.3907 -53.3903
   -53.3898 -53.3872 -53.3862 -53.3856 -53.3845 -53.3807 -53.3806 -53.3803
   -53.3786 -53.3776 -53.3772 -53.3755 -53.3718 -53.3681 -53.3667 -53.3661
    -3.8355  -3.6526  -3.5193  -3.4955  -3.4917  -3.4869  -3.4392  -3.4113
    -3.4044  -3.4040  -3.3760  -3.3558  -3.3544  -3.3208  -3.3138  -3.2871
    -3.2648  -3.2582  -3.2549  -3.1694  -3.1105  -3.1093  -2.9968  -2.9743
    -2.9416  -2.8977  -2.8367  -2.8145  -2.7477  -2.5745  -2.5547  -2.5002
    -2.4949  -2.4947  -2.4772  -2.4405  -2.4290  -2.3360  -2.2928  -2.2847
    -2.2552  -2.2501  -2.2425  -2.2416  -2.2045  -2.1474  -2.1384  -2.1179
    -2.0512  -2.0486  -1.9829  -1.8651  -1.8540  -1.8396  -1.8253  -1.8192
    -1.7834  -1.6781  -1.6714  -1.6630  -1.6354  -1.6354  -1.6126  -1.5956
    -1.5794  -1.5787  -1.5542  -1.5196  -1.5165  -1.5162  -1.4867  -1.4559
    -1.4549  -1.4367  -1.3664  -1.3589  -1.3123  -1.2965  -1.2557  -1.2486
    -1.2464  -1.1636  -1.1357  -0.8474   0.6632   1.0897   1.2394   1.6217
     1.7806   1.8175   2.2680   3.0984   3.3782   3.7427   4.1042   4.4862
     4.6046   4.7141   4.7505   5.0541   5.1296   5.4915   5.6244   5.7519
     5.7954   6.2031   6.4462   6.5478   6.7775   7.0503   7.0550   7.3347
     7.5139   7.5676   7.5989   7.7215   7.8006   8.0832

     occupation numbers 
     1.0000   1.0000   1.0000   1.0000   1.0000   1.0000   1.0000   1.0000
     1.0000   1.0000   1.0000   1.0000   1.0000   1.0000   1.0000   1.0000
     1.0000   1.0000   1.0000   1.0000   1.0000   1.0000   1.0000   1.0000
     1.0000   1.0000   1.0000   1.0000   1.0000   1.0000   1.0000   1.0000
     1.0000   1.0000   1.0000   1.0000   1.0000   1.0000   1.0000   1.0000
     1.0000   1.0000   1.0000   1.0000   1.0000   1.0000   1.0000   1.0000
     1.0000   1.0000   1.0000   1.0000   1.0000   1.0000   1.0000   1.0000
     1.0000   1.0000   1.0000   1.0000   1.0000   1.0000   1.0000   1.0000
     1.0000   1.0000   1.0000   1.0000   1.0000   1.0000   1.0000   1.0000
     1.0000   1.0000   1.0000   1.0000   1.0000   1.0000   1.0000   1.0000
     1.0000   1.0000   1.0000   1.0000   1.0000   1.0000   1.0000   1.0000
     1.0000   1.0000   1.0000   1.0000   1.0000   1.0000   1.0000   1.0000
     1.0000   1.0000   1.0000   1.0000   1.0000   1.0000   1.0000   1.0000
     1.0000   1.0000   1.0000   1.0000   1.0000   1.0000   1.0000   1.0000
     1.0000   1.0000   1.0000   1.0000   1.0000   1.0000   1.0000   1.0000
     1.0000   1.0000   1.0000   1.0000   1.0000   1.0000   1.0000   1.0000
     1.0000   1.0000   1.0000   1.0000   1.0000   1.0000   1.0000   1.0000
     1.0000   1.0000   1.0000   1.0000   1.0000   1.0000   1.0000   1.0000
     1.0000   1.0000   1.0000   1.0000   1.0000   1.0000   1.0000   0.2480
     0.0000   0.0000   0.0000   0.0000   0.0000   0.0000   0.0000   0.0000
     0.0000   0.0000   0.0000   0.0000   0.0000   0.0000   0.0000   0.0000
     0.0000   0.0000   0.0000   0.0000   0.0000   0.0000   0.0000   0.0000
     0.0000   0.0000   0.0000   0.0000   0.0000   0.0000

          k = 0.2500-0.5000 0.0000 ( 18370 PWs)   bands (ev):

   -89.9471 -89.9469 -89.9442 -89.9441 -89.9402 -89.9400 -89.9400 -89.9399
   -89.9394 -89.9393 -89.9388 -89.9386 -89.9383 -89.9381 -89.9373 -89.9372
   -53.4598 -53.4598 -53.4591 -53.4590 -53.4582 -53.4581 -53.4575 -53.4574
   -53.4462 -53.4462 -53.4421 -53.4421 -53.4291 -53.4290 -53.4243 -53.4242
   -53.4217 -53.4217 -53.4189 -53.4188 -53.4039 -53.4039 -53.3991 -53.3991
   -53.3978 -53.3978 -53.3961 -53.3961 -53.3930 -53.3930 -53.3902 -53.3901
   -53.3887 -53.3886 -53.3883 -53.3881 -53.3815 -53.3814 -53.3790 -53.3790
   -53.3786 -53.3784 -53.3774 -53.3774 -53.3702 -53.3701 -53.3663 -53.3662
    -3.6671  -3.6670  -3.5826  -3.5826  -3.4880  -3.4879  -3.4587  -3.4587
    -3.3432  -3.3432  -3.3196  -3.3194  -3.3050  -3.3049  -3.3036  -3.3035
    -3.2646  -3.2645  -3.2405  -3.2404  -3.2333  -3.2333  -2.9537  -2.9537
    -2.9095  -2.9093  -2.8200  -2.8199  -2.7085  -2.7084  -2.5073  -2.5072
    -2.4808  -2.4808  -2.4335  -2.4335  -2.3897  -2.3897  -2.3523  -2.3522
    -2.2600  -2.2600  -2.2133  -2.2131  -2.2080  -2.2079  -2.1345  -2.1344
    -1.9401  -1.9400  -1.9184  -1.9183  -1.8776  -1.8775  -1.7904  -1.7903
    -1.7581  -1.7580  -1.6637  -1.6636  -1.6155  -1.6155  -1.6053  -1.6052
    -1.5539  -1.5539  -1.5452  -1.5451  -1.4854  -1.4853  -1.4351  -1.4350
    -1.4167  -1.4166  -1.4031  -1.4031  -1.3861  -1.3861  -1.2586  -1.2586
    -1.2307  -1.2306  -1.0786  -1.0784   0.9153   0.9154   1.4224   1.4226
     1.9910   1.9911   2.4773   2.4774   3.9360   3.9360   4.0796   4.0797
     4.5120   4.5121   5.0144   5.0145   5.3613   5.3614   5.5493   5.5493
     6.4553   6.4553   6.5051   6.5051   6.5978   6.5978   6.7694   6.7694
     7.5574   7.5574   7.7896   7.7921   7.7921   8.3593

     occupation numbers 
     1.0000   1.0000   1.0000   1.0000   1.0000   1.0000   1.0000   1.0000
     1.0000   1.0000   1.0000   1.0000   1.0000   1.0000   1.0000   1.0000
     1.0000   1.0000   1.0000   1.0000   1.0000   1.0000   1.0000   1.0000
     1.0000   1.0000   1.0000   1.0000   1.0000   1.0000   1.0000   1.0000
     1.0000   1.0000   1.0000   1.0000   1.0000   1.0000   1.0000   1.0000
     1.0000   1.0000   1.0000   1.0000   1.0000   1.0000   1.0000   1.0000
     1.0000   1.0000   1.0000   1.0000   1.0000   1.0000   1.0000   1.0000
     1.0000   1.0000   1.0000   1.0000   1.0000   1.0000   1.0000   1.0000
     1.0000   1.0000   1.0000   1.0000   1.0000   1.0000   1.0000   1.0000
     1.0000   1.0000   1.0000   1.0000   1.0000   1.0000   1.0000   1.0000
     1.0000   1.0000   1.0000   1.0000   1.0000   1.0000   1.0000   1.0000
     1.0000   1.0000   1.0000   1.0000   1.0000   1.0000   1.0000   1.0000
     1.0000   1.0000   1.0000   1.0000   1.0000   1.0000   1.0000   1.0000
     1.0000   1.0000   1.0000   1.0000   1.0000   1.0000   1.0000   1.0000
     1.0000   1.0000   1.0000   1.0000   1.0000   1.0000   1.0000   1.0000
     1.0000   1.0000   1.0000   1.0000   1.0000   1.0000   1.0000   1.0000
     1.0000   1.0000   1.0000   1.0000   1.0000   1.0000   1.0000   1.0000
     1.0000   1.0000   1.0000   1.0000   1.0000   1.0000   1.0000   1.0000
     1.0000   1.0000   1.0000   1.0000   1.0000   1.0000   1.0000   1.0000
     0.0000   0.0000   0.0000   0.0000   0.0000   0.0000   0.0000   0.0000
     0.0000   0.0000   0.0000   0.0000   0.0000   0.0000   0.0000   0.0000
     0.0000   0.0000   0.0000   0.0000   0.0000   0.0000   0.0000   0.0000
     0.0000   0.0000   0.0000   0.0000   0.0000   0.0000

          k = 0.3750 0.3750 0.0000 ( 18388 PWs)   bands (ev):

   -89.9472 -89.9456 -89.9456 -89.9444 -89.9400 -89.9397 -89.9396 -89.9395
   -89.9393 -89.9392 -89.9391 -89.9391 -89.9380 -89.9380 -89.9376 -89.9375
   -53.4608 -53.4607 -53.4607 -53.4607 -53.4593 -53.4593 -53.4568 -53.4568
   -53.4473 -53.4423 -53.4344 -53.4344 -53.4335 -53.4335 -53.4289 -53.4218
   -53.4213 -53.4213 -53.4152 -53.4152 -53.4095 -53.4095 -53.4004 -53.4004
   -53.3966 -53.3966 -53.3962 -53.3960 -53.3960 -53.3951 -53.3908 -53.3896
   -53.3886 -53.3886 -53.3849 -53.3849 -53.3831 -53.3831 -53.3798 -53.3798
   -53.3780 -53.3780 -53.3765 -53.3749 -53.3704 -53.3678 -53.3678 -53.3665
    -3.7408  -3.6379  -3.5407  -3.5259  -3.5259  -3.5152  -3.5118  -3.5118
    -3.3540  -3.3540  -3.3240  -3.3240  -3.2893  -3.2893  -3.2761  -3.2761
    -3.2729  -3.2729  -3.2519  -3.0939  -3.0939  -3.0474  -3.0474  -3.0287
    -3.0287  -2.9570  -2.8741  -2.8741  -2.7153  -2.5118  -2.4887  -2.4880
    -2.4880  -2.4849  -2.4849  -2.4154  -2.4154  -2.2924  -2.2542  -2.2533
    -2.2533  -2.2293  -2.1796  -2.1796  -2.1315  -2.1281  -2.1221  -2.1221
    -2.1042  -2.1042  -1.9745  -1.9745  -1.8870  -1.8870  -1.8660  -1.8194
    -1.8194  -1.7237  -1.7237  -1.6785  -1.6785  -1.6760  -1.6760  -1.6156
    -1.5389  -1.5089  -1.5089  -1.5076  -1.5076  -1.5039  -1.4893  -1.4893
    -1.4314  -1.4314  -1.3971  -1.3172  -1.3172  -1.3015  -1.2686  -1.2608
    -1.2608  -1.2437  -1.2365  -1.2365   0.8326   1.3897   1.3897   1.8986
     1.8986   1.9007   2.6604   2.6604   3.6843   3.6843   3.9815   4.5051
     4.5051   4.6853   4.6853   4.9196   4.9196   5.2722   5.4712   5.4713
     6.3827   6.5174   6.6442   6.6442   6.7062   6.9510   6.9510   7.0858
     7.0858   7.2146   7.2146   7.4845   7.7288   8.7321

     occupation numbers 
     1.0000   1.0000   1.0000   1.0000   1.0000   1.0000   1.0000   1.0000
     1.0000   1.0000   1.0000   1.0000   1.0000   1.0000   1.0000   1.0000
     1.0000   1.0000   1.0000   1.0000   1.0000   1.0000   1.0000   1.0000
     1.0000   1.0000   1.0000   1.0000   1.0000   1.0000   1.0000   1.0000
     1.0000   1.0000   1.0000   1.0000   1.0000   1.0000   1.0000   1.0000
     1.0000   1.0000   1.0000   1.0000   1.0000   1.0000   1.0000   1.0000
     1.0000   1.0000   1.0000   1.0000   1.0000   1.0000   1.0000   1.0000
     1.0000   1.0000   1.0000   1.0000   1.0000   1.0000   1.0000   1.0000
     1.0000   1.0000   1.0000   1.0000   1.0000   1.0000   1.0000   1.0000
     1.0000   1.0000   1.0000   1.0000   1.0000   1.0000   1.0000   1.0000
     1.0000   1.0000   1.0000   1.0000   1.0000   1.0000   1.0000   1.0000
     1.0000   1.0000   1.0000   1.0000   1.0000   1.0000   1.0000   1.0000
     1.0000   1.0000   1.0000   1.0000   1.0000   1.0000   1.0000   1.0000
     1.0000   1.0000   1.0000   1.0000   1.0000   1.0000   1.0000   1.0000
     1.0000   1.0000   1.0000   1.0000   1.0000   1.0000   1.0000   1.0000
     1.0000   1.0000   1.0000   1.0000   1.0000   1.0000   1.0000   1.0000
     1.0000   1.0000   1.0000   1.0000   1.0000   1.0000   1.0000   1.0000
     1.0000   1.0000   1.0000   1.0000   1.0000   1.0000   1.0000   1.0000
     1.0000   1.0000   1.0000   1.0000   1.0000   1.0000   1.0000   0.0000
     0.0000   0.0000   0.0000   0.0000   0.0000   0.0000   0.0000   0.0000
     0.0000   0.0000   0.0000   0.0000   0.0000   0.0000   0.0000   0.0000
     0.0000   0.0000   0.0000   0.0000   0.0000   0.0000   0.0000   0.0000
     0.0000   0.0000   0.0000   0.0000   0.0000   0.0000

          k = 0.3750-0.5000 0.0000 ( 18362 PWs)   bands (ev):

   -89.9466 -89.9465 -89.9451 -89.9450 -89.9399 -89.9398 -89.9396 -89.9395
   -89.9393 -89.9391 -89.9386 -89.9385 -89.9383 -89.9382 -89.9378 -89.9377
   -53.4601 -53.4600 -53.4600 -53.4600 -53.4594 -53.4593 -53.4593 -53.4592
   -53.4410 -53.4409 -53.4375 -53.4374 -53.4307 -53.4306 -53.4282 -53.4282
   -53.4184 -53.4183 -53.4158 -53.4157 -53.4077 -53.4076 -53.4051 -53.4051
   -53.3965 -53.3964 -53.3952 -53.3952 -53.3934 -53.3933 -53.3925 -53.3925
   -53.3864 -53.3863 -53.3857 -53.3856 -53.3827 -53.3826 -53.3814 -53.3812
   -53.3761 -53.3761 -53.3758 -53.3758 -53.3689 -53.3687 -53.3675 -53.3674
    -3.6283  -3.6282  -3.5946  -3.5946  -3.5435  -3.5434  -3.5207  -3.5206
    -3.3183  -3.3182  -3.3082  -3.3081  -3.3012  -3.3011  -3.2981  -3.2980
    -3.1954  -3.1952  -3.1766  -3.1765  -3.1270  -3.1269  -2.9930  -2.9929
    -2.9790  -2.9789  -2.9638  -2.9636  -2.5738  -2.5737  -2.5102  -2.5102
    -2.4776  -2.4776  -2.4139  -2.4139  -2.3061  -2.3061  -2.2766  -2.2766
    -2.2423  -2.2422  -2.2356  -2.2356  -2.1179  -2.1178  -2.0918  -2.0917
    -2.0134  -2.0134  -1.9896  -1.9896  -1.9545  -1.9544  -1.7875  -1.7875
    -1.7610  -1.7610  -1.7528  -1.7527  -1.7142  -1.7141  -1.6810  -1.6810
    -1.5455  -1.5454  -1.5196  -1.5196  -1.5016  -1.5015  -1.4483  -1.4482
    -1.4458  -1.4457  -1.3695  -1.3695  -1.3627  -1.3627  -1.2837  -1.2837
    -1.2449  -1.2449  -1.2437  -1.2437   1.0740   1.0741   1.6085   1.6086
     2.2512   2.2514   2.7696   2.7697   3.5619   3.5620   4.0724   4.0725
     4.2993   4.2994   4.9517   4.9518   5.1680   5.1681   5.7404   5.7405
     6.2719   6.2719   6.6326   6.6326   6.8819   6.8820   6.9283   6.9283
     7.1897   7.1897   7.3478   7.3478   7.4438   7.4439

     occupation numbers 
     1.0000   1.0000   1.0000   1.0000   1.0000   1.0000   1.0000   1.0000
     1.0000   1.0000   1.0000   1.0000   1.0000   1.0000   1.0000   1.0000
     1.0000   1.0000   1.0000   1.0000   1.0000   1.0000   1.0000   1.0000
     1.0000   1.0000   1.0000   1.0000   1.0000   1.0000   1.0000   1.0000
     1.0000   1.0000   1.0000   1.0000   1.0000   1.0000   1.0000   1.0000
     1.0000   1.0000   1.0000   1.0000   1.0000   1.0000   1.0000   1.0000
     1.0000   1.0000   1.0000   1.0000   1.0000   1.0000   1.0000   1.0000
     1.0000   1.0000   1.0000   1.0000   1.0000   1.0000   1.0000   1.0000
     1.0000   1.0000   1.0000   1.0000   1.0000   1.0000   1.0000   1.0000
     1.0000   1.0000   1.0000   1.0000   1.0000   1.0000   1.0000   1.0000
     1.0000   1.0000   1.0000   1.0000   1.0000   1.0000   1.0000   1.0000
     1.0000   1.0000   1.0000   1.0000   1.0000   1.0000   1.0000   1.0000
     1.0000   1.0000   1.0000   1.0000   1.0000   1.0000   1.0000   1.0000
     1.0000   1.0000   1.0000   1.0000   1.0000   1.0000   1.0000   1.0000
     1.0000   1.0000   1.0000   1.0000   1.0000   1.0000   1.0000   1.0000
     1.0000   1.0000   1.0000   1.0000   1.0000   1.0000   1.0000   1.0000
     1.0000   1.0000   1.0000   1.0000   1.0000   1.0000   1.0000   1.0000
     1.0000   1.0000   1.0000   1.0000   1.0000   1.0000   1.0000   1.0000
     1.0000   1.0000   1.0000   1.0000   1.0000   1.0000   0.4113   0.4097
     0.0000   0.0000   0.0000   0.0000   0.0000   0.0000   0.0000   0.0000
     0.0000   0.0000   0.0000   0.0000   0.0000   0.0000   0.0000   0.0000
     0.0000   0.0000   0.0000   0.0000   0.0000   0.0000   0.0000   0.0000
     0.0000   0.0000   0.0000   0.0000   0.0000   0.0000

          k =-0.5000-0.5000 0.0000 ( 18336 PWs)   bands (ev):

   -89.9460 -89.9459 -89.9459 -89.9457 -89.9398 -89.9397 -89.9397 -89.9396
   -89.9385 -89.9385 -89.9384 -89.9384 -89.9384 -89.9384 -89.9383 -89.9382
   -53.4600 -53.4600 -53.4600 -53.4600 -53.4600 -53.4600 -53.4599 -53.4599
   -53.4347 -53.4347 -53.4347 -53.4347 -53.4334 -53.4333 -53.4333 -53.4333
   -53.4116 -53.4116 -53.4116 -53.4115 -53.4115 -53.4115 -53.4115 -53.4115
   -53.3954 -53.3954 -53.3954 -53.3953 -53.3930 -53.3930 -53.3930 -53.3930
   -53.3841 -53.3840 -53.3839 -53.3839 -53.3839 -53.3839 -53.3838 -53.3838
   -53.3754 -53.3754 -53.3754 -53.3754 -53.3683 -53.3682 -53.3682 -53.3681
    -3.5809  -3.5808  -3.5808  -3.5808  -3.5785  -3.5785  -3.5785  -3.5784
    -3.3034  -3.3034  -3.3033  -3.3033  -3.3032  -3.3032  -3.3031  -3.3031
    -3.0911  -3.0911  -3.0910  -3.0910  -3.0910  -3.0910  -3.0909  -3.0908
    -3.0332  -3.0332  -3.0332  -3.0331  -2.4911  -2.4911  -2.4911  -2.4910
    -2.4819  -2.4818  -2.4818  -2.4818  -2.2319  -2.2319  -2.2319  -2.2319
    -2.1449  -2.1449  -2.1449  -2.1448  -2.1448  -2.1448  -2.1448  -2.1448
    -2.0025  -2.0024  -2.0024  -2.0023  -1.9973  -1.9973  -1.9973  -1.9972
    -1.7412  -1.7412  -1.7411  -1.7411  -1.7411  -1.7411  -1.7410  -1.7410
    -1.5667  -1.5666  -1.5666  -1.5665  -1.4675  -1.4674  -1.4674  -1.4673
    -1.3565  -1.3565  -1.3565  -1.3565  -1.3565  -1.3565  -1.3565  -1.3565
    -1.2466  -1.2466  -1.2466  -1.2466   1.3036   1.3037   1.3037   1.3038
     3.1396   3.1396   3.1397   3.1397   3.1397   3.1397   3.1398   3.1398
     4.5935   4.5936   4.5936   4.5936   5.9923   5.9923   5.9923   5.9924
     5.9924   5.9924   5.9925   5.9925   6.8785   6.8785   6.8785   6.8785
     7.1511   7.1511   7.1511   7.1511   8.1682   8.1682

     occupation numbers 
     1.0000   1.0000   1.0000   1.0000   1.0000   1.0000   1.0000   1.0000
     1.0000   1.0000   1.0000   1.0000   1.0000   1.0000   1.0000   1.0000
     1.0000   1.0000   1.0000   1.0000   1.0000   1.0000   1.0000   1.0000
     1.0000   1.0000   1.0000   1.0000   1.0000   1.0000   1.0000   1.0000
     1.0000   1.0000   1.0000   1.0000   1.0000   1.0000   1.0000   1.0000
     1.0000   1.0000   1.0000   1.0000   1.0000   1.0000   1.0000   1.0000
     1.0000   1.0000   1.0000   1.0000   1.0000   1.0000   1.0000   1.0000
     1.0000   1.0000   1.0000   1.0000   1.0000   1.0000   1.0000   1.0000
     1.0000   1.0000   1.0000   1.0000   1.0000   1.0000   1.0000   1.0000
     1.0000   1.0000   1.0000   1.0000   1.0000   1.0000   1.0000   1.0000
     1.0000   1.0000   1.0000   1.0000   1.0000   1.0000   1.0000   1.0000
     1.0000   1.0000   1.0000   1.0000   1.0000   1.0000   1.0000   1.0000
     1.0000   1.0000   1.0000   1.0000   1.0000   1.0000   1.0000   1.0000
     1.0000   1.0000   1.0000   1.0000   1.0000   1.0000   1.0000   1.0000
     1.0000   1.0000   1.0000   1.0000   1.0000   1.0000   1.0000   1.0000
     1.0000   1.0000   1.0000   1.0000   1.0000   1.0000   1.0000   1.0000
     1.0000   1.0000   1.0000   1.0000   1.0000   1.0000   1.0000   1.0000
     1.0000   1.0000   1.0000   1.0000   1.0000   1.0000   1.0000   1.0000
     1.0000   1.0000   1.0000   1.0000   1.0000   1.0000   1.0000   1.0000
     0.0000   0.0000   0.0000   0.0000   0.0000   0.0000   0.0000   0.0000
     0.0000   0.0000   0.0000   0.0000   0.0000   0.0000   0.0000   0.0000
     0.0000   0.0000   0.0000   0.0000   0.0000   0.0000   0.0000   0.0000
     0.0000   0.0000   0.0000   0.0000   0.0000   0.0000

     the Fermi energy is     1.6020 ev

!    total energy              =   -4729.28760238 Ry
     estimated scf accuracy    <       0.00000043 Ry
     smearing contrib. (-TS)   =      -0.00052775 Ry
     internal energy E=F+TS    =   -4729.28707464 Ry

     The total energy is F=E-TS. E is the sum of the following terms:
     one-electron contribution =  -13383.54861085 Ry
     hartree contribution      =    6676.59868205 Ry
     xc contribution           =    -462.68253179 Ry
     ewald contribution        =    2440.34538596 Ry

     convergence has been achieved in   9 iterations

     negative rho (up, down):  4.458E-03 0.000E+00

     Forces acting on atoms (cartesian axes, Ry/au):

     atom    1 type  1   force =     0.00000000    0.00000000    0.00850647
     atom    2 type  1   force =     0.00000000   -0.00002629   -0.00851200
     atom    3 type  1   force =    -0.00002629    0.00000000   -0.00851200
     atom    4 type  1   force =    -0.00002639   -0.00002639    0.00851693
     atom    5 type  1   force =     0.00000000    0.00000000    0.00850149
     atom    6 type  1   force =     0.00000000    0.00002629   -0.00851200
     atom    7 type  1   force =    -0.00002590    0.00000000   -0.00850623
     atom    8 type  1   force =    -0.00002639    0.00002639    0.00851693
     atom    9 type  1   force =     0.00000000    0.00000000    0.00850149
     atom   10 type  1   force =     0.00000000   -0.00002590   -0.00850623
     atom   11 type  1   force =     0.00002629    0.00000000   -0.00851200
     atom   12 type  1   force =     0.00002639   -0.00002639    0.00851693
     atom   13 type  1   force =     0.00000000    0.00000000    0.00849576
     atom   14 type  1   force =     0.00000000    0.00002590   -0.00850623
     atom   15 type  1   force =     0.00002590    0.00000000   -0.00850623
     atom   16 type  1   force =     0.00002639    0.00002639    0.00851693
     The non-local contrib.  to forces
     atom    1 type  1   force =     0.00000000    0.00000000   -0.19967091
     atom    2 type  1   force =     0.00000000   -0.00000820    0.19967417
     atom    3 type  1   force =    -0.00000820    0.00000000    0.19967417
     atom    4 type  1   force =    -0.00000820   -0.00000820   -0.19966648
     atom    5 type  1   force =     0.00000000    0.00000000   -0.19966849
     atom    6 type  1   force =     0.00000000    0.00000820    0.19967417
     atom    7 type  1   force =    -0.00000821    0.00000000    0.19967115
     atom    8 type  1   force =    -0.00000820    0.00000820   -0.19966648
     atom    9 type  1   force =     0.00000000    0.00000000   -0.19966849
     atom   10 type  1   force =     0.00000000   -0.00000821    0.19967115
     atom   11 type  1   force =     0.00000820    0.00000000    0.19967417
     atom   12 type  1   force =     0.00000820   -0.00000820   -0.19966648
     atom   13 type  1   force =     0.00000000    0.00000000   -0.19966547
     atom   14 type  1   force =     0.00000000    0.00000821    0.19967115
     atom   15 type  1   force =     0.00000821    0.00000000    0.19967115
     atom   16 type  1   force =     0.00000820    0.00000820   -0.19966648
     The ionic contribution  to forces
     atom    1 type  1   force =    -0.00011503   -0.00011503  -97.86675895
     atom    2 type  1   force =    -0.00011503   -0.00004478   97.86680874
     atom    3 type  1   force =    -0.00004478   -0.00011503   97.86680874
     atom    4 type  1   force =    -0.00004478   -0.00004478  -97.86685853
     atom    5 type  1   force =    -0.00011503    0.00004478  -97.86680874
     atom    6 type  1   force =    -0.00011503    0.00011503   97.86675895
     atom    7 type  1   force =    -0.00004478    0.00004478   97.86685853
     atom    8 type  1   force =    -0.00004478    0.00011503  -97.86680874
     atom    9 type  1   force =     0.00004478   -0.00011503  -97.86680874
     atom   10 type  1   force =     0.00004478   -0.00004478   97.86685853
     atom   11 type  1   force =     0.00011503   -0.00011503   97.86675895
     atom   12 type  1   force =     0.00011503   -0.00004478  -97.86680874
     atom   13 type  1   force =     0.00004478    0.00004478  -97.86685853
     atom   14 type  1   force =     0.00004478    0.00011503   97.86680874
     atom   15 type  1   force =     0.00011503    0.00004478   97.86680874
     atom   16 type  1   force =     0.00011503    0.00011503  -97.86675895
     The local contribution  to forces
     atom    1 type  1   force =    -0.00000000   -0.00000000   98.07337943
     atom    2 type  1   force =    -0.00000000    0.00100663  -98.07332273
     atom    3 type  1   force =     0.00100663   -0.00000000  -98.07332273
     atom    4 type  1   force =     0.00100605    0.00100605   98.07348391
     atom    5 type  1   force =    -0.00000000    0.00077696   98.07347575
     atom    6 type  1   force =    -0.00000000    0.00054728  -98.07332273
     atom    7 type  1   force =     0.00100447    0.00077696  -98.07342326
     atom    8 type  1   force =     0.00100605    0.00054786   98.07348391
     atom    9 type  1   force =     0.00077696   -0.00000000   98.07347575
     atom   10 type  1   force =     0.00077696    0.00100447  -98.07342326
     atom   11 type  1   force =     0.00054728   -0.00000000  -98.07332273
     atom   12 type  1   force =     0.00054786    0.00100605   98.07348391
     atom   13 type  1   force =     0.00077696    0.00077696   98.07357616
     atom   14 type  1   force =     0.00077696    0.00054944  -98.07342326
     atom   15 type  1   force =     0.00054944    0.00077696  -98.07342326
     atom   16 type  1   force =     0.00054786    0.00054786   98.07348391
     The core correction contribution to forces
     atom    1 type  1   force =    -0.00000000   -0.00000000    0.00144856
     atom    2 type  1   force =     0.00000000    0.00000045   -0.00144783
     atom    3 type  1   force =     0.00000045    0.00000000   -0.00144783
     atom    4 type  1   force =     0.00000045    0.00000045    0.00144902
     atom    5 type  1   force =    -0.00000000    0.00000050    0.00144858
     atom    6 type  1   force =     0.00000000    0.00000055   -0.00144783
     atom    7 type  1   force =     0.00000045    0.00000050   -0.00144784
     atom    8 type  1   force =     0.00000045    0.00000055    0.00144902
     atom    9 type  1   force =     0.00000050   -0.00000000    0.00144858
     atom   10 type  1   force =     0.00000050    0.00000045   -0.00144784
     atom   11 type  1   force =     0.00000055    0.00000000   -0.00144783
     atom   12 type  1   force =     0.00000055    0.00000045    0.00144902
     atom   13 type  1   force =     0.00000050    0.00000050    0.00144858
     atom   14 type  1   force =     0.00000050    0.00000055   -0.00144784
     atom   15 type  1   force =     0.00000055    0.00000050   -0.00144784
     atom   16 type  1   force =     0.00000055    0.00000055    0.00144902
     The Hubbard contrib.    to forces
     atom    1 type  1   force =     0.00000000    0.00000000    0.00000000
     atom    2 type  1   force =     0.00000000    0.00000000    0.00000000
     atom    3 type  1   force =     0.00000000    0.00000000    0.00000000
     atom    4 type  1   force =     0.00000000    0.00000000    0.00000000
     atom    5 type  1   force =     0.00000000    0.00000000    0.00000000
     atom    6 type  1   force =     0.00000000    0.00000000    0.00000000
     atom    7 type  1   force =     0.00000000    0.00000000    0.00000000
     atom    8 type  1   force =     0.00000000    0.00000000    0.00000000
     atom    9 type  1   force =     0.00000000    0.00000000    0.00000000
     atom   10 type  1   force =     0.00000000    0.00000000    0.00000000
     atom   11 type  1   force =     0.00000000    0.00000000    0.00000000
     atom   12 type  1   force =     0.00000000    0.00000000    0.00000000
     atom   13 type  1   force =     0.00000000    0.00000000    0.00000000
     atom   14 type  1   force =     0.00000000    0.00000000    0.00000000
     atom   15 type  1   force =     0.00000000    0.00000000    0.00000000
     atom   16 type  1   force =     0.00000000    0.00000000    0.00000000
     The SCF correction term to forces
     atom    1 type  1   force =     0.00000002    0.00000002    0.00009638
     atom    2 type  1   force =     0.00000002   -0.00016788   -0.00021142
     atom    3 type  1   force =    -0.00016788    0.00000002   -0.00021142
     atom    4 type  1   force =    -0.00016740   -0.00016740    0.00004726
     atom    5 type  1   force =     0.00000002   -0.00000007    0.00004245
     atom    6 type  1   force =     0.00000002    0.00016774   -0.00021142
     atom    7 type  1   force =    -0.00016531   -0.00000007   -0.00015189
     atom    8 type  1   force =    -0.00016740    0.00016726    0.00004726
     atom    9 type  1   force =    -0.00000007    0.00000002    0.00004245
     atom   10 type  1   force =    -0.00000007   -0.00016531   -0.00015189
     atom   11 type  1   force =     0.00016774    0.00000002   -0.00021142
     atom   12 type  1   force =     0.00016726   -0.00016740    0.00004726
     atom   13 type  1   force =    -0.00000007   -0.00000007   -0.00001695
     atom   14 type  1   force =    -0.00000007    0.00016517   -0.00015188
[...]
    -2.1806  -2.1806  -2.1805  -2.1805  -2.1805  -2.1805  -2.1805  -2.1805
    -2.1001  -2.1000  -2.1000  -2.0999  -1.9788  -1.9787  -1.9787  -1.9786
    -1.6971  -1.6971  -1.6970  -1.6970  -1.6970  -1.6970  -1.6969  -1.6969
    -1.5674  -1.5674  -1.5673  -1.5673  -1.4393  -1.4392  -1.4392  -1.4391
    -1.3646  -1.3646  -1.3646  -1.3646  -1.3646  -1.3646  -1.3646  -1.3646
    -1.2104  -1.2104  -1.2104  -1.2104   1.3827   1.3828   1.3828   1.3829
     3.1049   3.1049   3.1050   3.1050   3.1051   3.1051   3.1052   3.1052
     4.6741   4.6742   4.6742   4.6743   6.0797   6.0798   6.0798   6.0798
     6.0799   6.0799   6.0799   6.0799   6.8862   6.8862   6.8862   6.8862
     7.1735   7.1735   7.1735   7.1736   8.1404   8.1404

     occupation numbers 
     1.0000   1.0000   1.0000   1.0000   1.0000   1.0000   1.0000   1.0000
     1.0000   1.0000   1.0000   1.0000   1.0000   1.0000   1.0000   1.0000
     1.0000   1.0000   1.0000   1.0000   1.0000   1.0000   1.0000   1.0000
     1.0000   1.0000   1.0000   1.0000   1.0000   1.0000   1.0000   1.0000
     1.0000   1.0000   1.0000   1.0000   1.0000   1.0000   1.0000   1.0000
     1.0000   1.0000   1.0000   1.0000   1.0000   1.0000   1.0000   1.0000
     1.0000   1.0000   1.0000   1.0000   1.0000   1.0000   1.0000   1.0000
     1.0000   1.0000   1.0000   1.0000   1.0000   1.0000   1.0000   1.0000
     1.0000   1.0000   1.0000   1.0000   1.0000   1.0000   1.0000   1.0000
     1.0000   1.0000   1.0000   1.0000   1.0000   1.0000   1.0000   1.0000
     1.0000   1.0000   1.0000   1.0000   1.0000   1.0000   1.0000   1.0000
     1.0000   1.0000   1.0000   1.0000   1.0000   1.0000   1.0000   1.0000
     1.0000   1.0000   1.0000   1.0000   1.0000   1.0000   1.0000   1.0000
     1.0000   1.0000   1.0000   1.0000   1.0000   1.0000   1.0000   1.0000
     1.0000   1.0000   1.0000   1.0000   1.0000   1.0000   1.0000   1.0000
     1.0000   1.0000   1.0000   1.0000   1.0000   1.0000   1.0000   1.0000
     1.0000   1.0000   1.0000   1.0000   1.0000   1.0000   1.0000   1.0000
     1.0000   1.0000   1.0000   1.0000   1.0000   1.0000   1.0000   1.0000
     1.0000   1.0000   1.0000   1.0000   1.0000   1.0000   1.0000   1.0000
     0.0000   0.0000   0.0000   0.0000   0.0000   0.0000   0.0000   0.0000
     0.0000   0.0000   0.0000   0.0000   0.0000   0.0000   0.0000   0.0000
     0.0000   0.0000   0.0000   0.0000   0.0000   0.0000   0.0000   0.0000
     0.0000   0.0000   0.0000   0.0000   0.0000   0.0000

     the Fermi energy is     1.6538 ev

!    total energy              =   -4729.29337304 Ry
     estimated scf accuracy    <          3.3E-09 Ry
     smearing contrib. (-TS)   =      -0.00034636 Ry
     internal energy E=F+TS    =   -4729.29302668 Ry

     The total energy is F=E-TS. E is the sum of the following terms:
     one-electron contribution =  -13633.65296936 Ry
     hartree contribution      =    6801.33256351 Ry
     xc contribution           =    -462.81223166 Ry
     ewald contribution        =    2565.83961083 Ry

     convergence has been achieved in   5 iterations

     negative rho (up, down):  4.511E-03 0.000E+00

     Forces acting on atoms (cartesian axes, Ry/au):

     atom    1 type  1   force =     0.00000000    0.00000000    0.00005698
     atom    2 type  1   force =     0.00000000    0.00000796   -0.00004835
     atom    3 type  1   force =     0.00000796    0.00000000   -0.00004835
     atom    4 type  1   force =     0.00000756    0.00000756    0.00003920
     atom    5 type  1   force =     0.00000000    0.00000000    0.00006410
     atom    6 type  1   force =     0.00000000   -0.00000796   -0.00004835
     atom    7 type  1   force =     0.00000616    0.00000000   -0.00005485
     atom    8 type  1   force =     0.00000756   -0.00000756    0.00003920
     atom    9 type  1   force =     0.00000000    0.00000000    0.00006410
     atom   10 type  1   force =     0.00000000    0.00000616   -0.00005485
     atom   11 type  1   force =    -0.00000796    0.00000000   -0.00004835
     atom   12 type  1   force =    -0.00000756    0.00000756    0.00003920
     atom   13 type  1   force =     0.00000000    0.00000000    0.00007081
     atom   14 type  1   force =     0.00000000   -0.00000616   -0.00005485
     atom   15 type  1   force =    -0.00000616    0.00000000   -0.00005485
     atom   16 type  1   force =    -0.00000756   -0.00000756    0.00003920
     The non-local contrib.  to forces
     atom    1 type  1   force =     0.00000000    0.00000000   -0.21397059
     atom    2 type  1   force =     0.00000000    0.00001738    0.21399980
     atom    3 type  1   force =     0.00001738    0.00000000    0.21399980
     atom    4 type  1   force =     0.00001456    0.00001456   -0.21399517
     atom    5 type  1   force =     0.00000000    0.00000000   -0.21398787
     atom    6 type  1   force =     0.00000000   -0.00001738    0.21399980
     atom    7 type  1   force =     0.00000985    0.00000000    0.21401181
     atom    8 type  1   force =     0.00001456   -0.00001456   -0.21399517
     atom    9 type  1   force =     0.00000000    0.00000000   -0.21398787
     atom   10 type  1   force =     0.00000000    0.00000985    0.21401181
     atom   11 type  1   force =    -0.00001738    0.00000000    0.21399980
     atom   12 type  1   force =    -0.00001456    0.00001456   -0.21399517
     atom   13 type  1   force =     0.00000000    0.00000000   -0.21400488
     atom   14 type  1   force =     0.00000000   -0.00000985    0.21401181
     atom   15 type  1   force =    -0.00000985    0.00000000    0.21401181
     atom   16 type  1   force =    -0.00001456   -0.00001456   -0.21399517
     The ionic contribution  to forces
     atom    1 type  1   force =    -0.00011892   -0.00011892  -98.58527250
     atom    2 type  1   force =    -0.00011892    0.00427018   98.58162546
     atom    3 type  1   force =     0.00427018   -0.00011892   98.58162546
     atom    4 type  1   force =     0.00384040    0.00384040  -98.57727886
     atom    5 type  1   force =    -0.00011891    0.00004539  -98.58170455
     atom    6 type  1   force =    -0.00011892   -0.00419664   98.58157268
     atom    7 type  1   force =     0.00328556    0.00004539   98.57804900
     atom    8 type  1   force =     0.00384039   -0.00376686  -98.57722608
     atom    9 type  1   force =     0.00004539   -0.00011891  -98.58170455
     atom   10 type  1   force =     0.00004539    0.00328556   98.57804900
     atom   11 type  1   force =    -0.00419664   -0.00011892   98.58157268
     atom   12 type  1   force =    -0.00376686    0.00384039  -98.57722608
     atom   13 type  1   force =     0.00004539    0.00004539  -98.58090080
     atom   14 type  1   force =     0.00004539   -0.00321203   98.57799622
     atom   15 type  1   force =    -0.00321203    0.00004539   98.57799622
     atom   16 type  1   force =    -0.00376686   -0.00376686  -98.57717330
     The local contribution  to forces
     atom    1 type  1   force =    -0.00000000   -0.00000000   98.79769687
     atom    2 type  1   force =    -0.00000000   -0.00347423  -98.79395452
     atom    3 type  1   force =    -0.00347423    0.00000000  -98.79395452
     atom    4 type  1   force =    -0.00304229   -0.00304229   98.78965218
     atom    5 type  1   force =    -0.00000000    0.00077497   98.79415067
     atom    6 type  1   force =     0.00000000    0.00502419  -98.79395452
     atom    7 type  1   force =    -0.00248447    0.00077497  -98.79039427
     atom    8 type  1   force =    -0.00304229    0.00459224   98.78965218
     atom    9 type  1   force =     0.00077497   -0.00000000   98.79415067
     atom   10 type  1   force =     0.00077497   -0.00248447  -98.79039427
     atom   11 type  1   force =     0.00502419    0.00000000  -98.79395452
     atom   12 type  1   force =     0.00459224   -0.00304229   98.78965218
     atom   13 type  1   force =     0.00077498    0.00077498   98.79336830
     atom   14 type  1   force =     0.00077497    0.00403443  -98.79039427
     atom   15 type  1   force =     0.00403443    0.00077497  -98.79039427
     atom   16 type  1   force =     0.00459224    0.00459224   98.78965217
     The core correction contribution to forces
     atom    1 type  1   force =    -0.00000000   -0.00000000    0.00154490
     atom    2 type  1   force =     0.00000000    0.00000043   -0.00154463
     atom    3 type  1   force =     0.00000043    0.00000000   -0.00154463
     atom    4 type  1   force =     0.00000045    0.00000045    0.00154394
     atom    5 type  1   force =    -0.00000000    0.00000050    0.00154488
     atom    6 type  1   force =    -0.00000000    0.00000057   -0.00154463
     atom    7 type  1   force =     0.00000047    0.00000050   -0.00154460
     atom    8 type  1   force =     0.00000045    0.00000056    0.00154394
     atom    9 type  1   force =     0.00000050   -0.00000000    0.00154488
     atom   10 type  1   force =     0.00000050    0.00000047   -0.00154460
     atom   11 type  1   force =     0.00000057   -0.00000000   -0.00154463
     atom   12 type  1   force =     0.00000056    0.00000045    0.00154394
     atom   13 type  1   force =     0.00000050    0.00000050    0.00154491
     atom   14 type  1   force =     0.00000050    0.00000054   -0.00154460
     atom   15 type  1   force =     0.00000054    0.00000050   -0.00154460
     atom   16 type  1   force =     0.00000056    0.00000056    0.00154394
     The Hubbard contrib.    to forces
     atom    1 type  1   force =     0.00000000    0.00000000    0.00000000
     atom    2 type  1   force =     0.00000000    0.00000000    0.00000000
     atom    3 type  1   force =     0.00000000    0.00000000    0.00000000
     atom    4 type  1   force =     0.00000000    0.00000000    0.00000000
     atom    5 type  1   force =     0.00000000    0.00000000    0.00000000
     atom    6 type  1   force =     0.00000000    0.00000000    0.00000000
     atom    7 type  1   force =     0.00000000    0.00000000    0.00000000
     atom    8 type  1   force =     0.00000000    0.00000000    0.00000000
     atom    9 type  1   force =     0.00000000    0.00000000    0.00000000
     atom   10 type  1   force =     0.00000000    0.00000000    0.00000000
     atom   11 type  1   force =     0.00000000    0.00000000    0.00000000
     atom   12 type  1   force =     0.00000000    0.00000000    0.00000000
     atom   13 type  1   force =     0.00000000    0.00000000    0.00000000
     atom   14 type  1   force =     0.00000000    0.00000000    0.00000000
     atom   15 type  1   force =     0.00000000    0.00000000    0.00000000
     atom   16 type  1   force =     0.00000000    0.00000000    0.00000000
     The SCF correction term to forces
     atom    1 type  1   force =    -0.00000000   -0.00000000    0.00006000
     atom    2 type  1   force =    -0.00000000    0.00000644   -0.00014639
     atom    3 type  1   force =     0.00000644   -0.00000000   -0.00014639
     atom    4 type  1   force =     0.00000670    0.00000670    0.00006603
     atom    5 type  1   force =    -0.00000000   -0.00000000    0.00006266
     atom    6 type  1   force =    -0.00000000   -0.00000644   -0.00014639
     atom    7 type  1   force =     0.00000701   -0.00000000   -0.00014870
     atom    8 type  1   force =     0.00000670   -0.00000670    0.00006603
     atom    9 type  1   force =    -0.00000000   -0.00000000    0.00006266
     atom   10 type  1   force =    -0.00000000    0.00000701   -0.00014870
     atom   11 type  1   force =    -0.00000644   -0.00000000   -0.00014639
     atom   12 type  1   force =    -0.00000670    0.00000670    0.00006603
     atom   13 type  1   force =    -0.00000000   -0.00000000    0.00006497
     atom   14 type  1   force =    -0.00000000   -0.00000701   -0.00014870
     atom   15 type  1   force =    -0.00000701   -0.00000000   -0.00014870
     atom   16 type  1   force =    -0.00000670   -0.00000670    0.00006604

     Total force =     0.000212     Total SCF correction =     0.000456
     SCF correction compared to forces is large: reduce conv_thr to get better values


     Computing stress (Cartesian axis) and pressure


     negative rho (up, down):  4.511E-03 0.000E+00
          total   stress  (Ry/bohr**3)                   (kbar)     P=      -38.91
  -0.00029814   0.00000000   0.00000000          -43.86        0.00        0.00
   0.00000000  -0.00029814   0.00000000            0.00      -43.86        0.00
   0.00000000   0.00000000  -0.00019720            0.00        0.00      -29.01

     kinetic stress (kbar)  15880.22      0.00      0.00
                                0.00  15880.22      0.00
                                0.00      0.00  15951.74

     local   stress (kbar)-251685.46     -0.00      0.00
                               -0.00-251685.46      0.00
                                0.00      0.00 251485.86

     nonloc. stress (kbar)   1858.88      0.00      0.00
                                0.00   1858.88      0.00
                                0.00      0.00   1840.14

     hartree stress (kbar) 132204.74      0.00     -0.00
                                0.00 132204.74     -0.00
                               -0.00     -0.00-113198.46

     exc-cor stress (kbar)  -2862.94     -0.00      0.00
                               -0.00  -2862.94      0.00
                                0.00      0.00  -2868.79

     corecor stress (kbar)   -387.77      0.00      0.00
                                0.00   -387.77      0.00
                                0.00      0.00   -387.73

     ewald   stress (kbar) 104948.48     -0.00     -0.00
                               -0.00 104948.48     -0.00
                               -0.00     -0.00-152851.77

     hubbard stress (kbar)      0.00      0.00      0.00
                                0.00      0.00      0.00
                                0.00      0.00      0.00

     DFT-D   stress (kbar)      0.00      0.00      0.00
                                0.00      0.00      0.00
                                0.00      0.00      0.00

     XDM     stress (kbar)      0.00      0.00      0.00
                                0.00      0.00      0.00
                                0.00      0.00      0.00

     dft-nl  stress (kbar)      0.00      0.00      0.00
                                0.00      0.00      0.00
                                0.00      0.00      0.00

     TS-vdW  stress (kbar)      0.00      0.00      0.00
                                0.00      0.00      0.00
                                0.00      0.00      0.00


     Energy error            =      2.1E-05
     Gradient error          =      7.1E-05

     bfgs converged in   7 scf cycles and   6 bfgs steps
     (criteria: energy <  1.0E-04 Ry, force <  1.0E-03 Ry/Bohr)

     End of BFGS Geometry Optimization

     Final energy   =   -4729.2933730437 Ry

     File ./surface.bfgs deleted, as requested
Begin final coordinates

ATOMIC_POSITIONS (angstrom)
Ag            0.0000000000        0.0000000000        0.0422014500
Ag            0.0000000000        2.0802221774        2.0380331049
Ag            2.0802221774        0.0000000000        2.0380331049
Ag            2.0802214771        2.0802214771        0.0422903802
Ag            0.0000000000        4.1605480000        0.0422176035
Ag            0.0000000000        6.2408738226        2.0380331049
Ag            2.0802366290        4.1605480000        2.0380142103
Ag            2.0802214771        6.2408745229        0.0422903802
Ag            4.1605480000        0.0000000000        0.0422176035
Ag            4.1605480000        2.0802366290        2.0380142103
Ag            6.2408738226        0.0000000000        2.0380331049
Ag            6.2408745229        2.0802214771        0.0422903802
Ag            4.1605480000        4.1605480000        0.0422045614
Ag            4.1605480000        6.2408593710        2.0380142103
Ag            6.2408593710        4.1605480000        2.0380142103
Ag            6.2408745229        6.2408745229        0.0422903802
End final coordinates



     Writing output data file ./surface.save/

     init_run     :      2.93s CPU      3.05s WALL (       1 calls)
     electrons    :    367.76s CPU    374.57s WALL (       7 calls)
     update_pot   :      1.62s CPU      1.64s WALL (       6 calls)
     forces       :     10.09s CPU     10.35s WALL (       7 calls)
     stress       :     27.72s CPU     28.30s WALL (       7 calls)

     Called by init_run:
     wfcinit      :      2.24s CPU      2.29s WALL (       1 calls)
     wfcinit:atom :      0.01s CPU      0.01s WALL (      15 calls)
     wfcinit:wfcr :      2.12s CPU      2.17s WALL (      15 calls)
     potinit      :      0.11s CPU      0.12s WALL (       1 calls)
     hinit0       :      0.17s CPU      0.19s WALL (       1 calls)

     Called by electrons:
     c_bands      :    322.71s CPU    326.39s WALL (      49 calls)
     sum_band     :     39.02s CPU     40.64s WALL (      49 calls)
     v_of_rho     :      1.83s CPU      1.85s WALL (      52 calls)
     v_h          :      0.15s CPU      0.15s WALL (      52 calls)
     v_xc         :      2.15s CPU      2.18s WALL (      66 calls)
     newd         :      4.36s CPU      5.51s WALL (      52 calls)
     mix_rho      :      0.16s CPU      0.17s WALL (      49 calls)

     Called by c_bands:
     init_us_2    :      1.61s CPU      1.64s WALL (    1695 calls)
     cegterg      :    315.34s CPU    318.88s WALL (     735 calls)

     Called by sum_band:
     sum_band:wei :      0.04s CPU      0.04s WALL (      49 calls)
     sum_band:loo :     32.91s CPU     33.44s WALL (      49 calls)
     sum_band:buf :      0.57s CPU      0.61s WALL (     735 calls)
     sum_band:ini :      0.66s CPU      0.68s WALL (     735 calls)
     sum_band:cal :      9.44s CPU      9.52s WALL (     735 calls)
     sum_band:bec :      0.42s CPU      0.43s WALL (     735 calls)
     addusdens    :      3.23s CPU      4.30s WALL (      49 calls)
     addusd:skk   :      0.08s CPU      0.08s WALL (      49 calls)
     addusd:dgemm :      0.94s CPU      1.87s WALL (      49 calls)
     addusd:qvan2 :      1.78s CPU      1.79s WALL (      49 calls)

     Called by *egterg:
     cdiaghg      :     54.84s CPU     55.30s WALL (    2515 calls)
     cegterg:over :     29.83s CPU     30.09s WALL (    1930 calls)
     cegterg:upda :     19.10s CPU     19.26s WALL (    1930 calls)
     cegterg:last :     45.35s CPU     45.72s WALL (    1488 calls)
     cdiaghg:chol :      2.50s CPU      2.53s WALL (    2515 calls)
     cdiaghg:inve :      2.63s CPU      2.65s WALL (    2515 calls)
     cdiaghg:para :      7.51s CPU      7.59s WALL (    5030 calls)
     h_psi        :    140.49s CPU    142.62s WALL (    2680 calls)
     s_psi        :     15.24s CPU     15.35s WALL (    2680 calls)
     g_psi        :      0.46s CPU      0.46s WALL (    1930 calls)

     Called by h_psi:
     h_psi:calbec :     24.92s CPU     25.13s WALL (    2680 calls)
     vloc_psi     :     97.81s CPU     99.58s WALL (    2680 calls)
     add_vuspsi   :     16.86s CPU     17.01s WALL (    2680 calls)

     General routines
     calbec       :     42.84s CPU     43.19s WALL (    3940 calls)
     fft          :      1.53s CPU      1.56s WALL (     847 calls)
     ffts         :      0.04s CPU      0.04s WALL (     101 calls)
     fftw         :    110.13s CPU    112.10s WALL (  783326 calls)
     interpolate  :      0.13s CPU      0.13s WALL (      52 calls)

     Parallel routines
     fft_scatt_xy :      7.70s CPU      7.83s WALL (  784274 calls)
     fft_scatt_yz :     64.63s CPU     65.86s WALL (  784274 calls)

     PWSCF        :   6m52.43s CPU   7m 2.95s WALL


   This run was terminated on:   0:32:28   6Dec2021            

=------------------------------------------------------------------------------=
   JOB DONE.
=------------------------------------------------------------------------------=
