
     Program PWSCF v.6.7MaX starts on  6Dec2021 at  0:25:25 

     This program is part of the open-source Quantum ESPRESSO suite
     for quantum simulation of materials; please cite
         "P. Giannozzi et al., J. Phys.:Condens. Matter 21 395502 (2009);
         "P. Giannozzi et al., J. Phys.:Condens. Matter 29 465901 (2017);
          URL http://www.quantum-espresso.org", 
     in publications or presentations arising from this work. More details at
     http://www.quantum-espresso.org/quote

     Parallel version (MPI), running on    32 processors

     MPI processes distributed on     1 nodes
     R & G space division:  proc/nbgrp/npool/nimage =      32
     Reading input from ag_surface.100.k.qe.7_7_1.in

     Current dimensions of program PWSCF are:
     Max number of different atomic species (ntypx) = 10
     Max number of k-points (npk) =  40000
     Max angular momentum in pseudopotentials (lmaxx) =  3

     Subspace diagonalization in iterative solution of the eigenvalue problem:
     one sub-group per band group will be used
     scalapack distributed-memory algorithm (size of sub-group:  5*  5 procs)

     Found symmetry operation: I + (  0.2500  0.2500  0.0000)
     This is a supercell, fractional translations are disabled

     Parallelization info
     --------------------
     sticks:   dense  smooth     PW     G-vecs:    dense   smooth      PW
     Min         184      73     20                18142     4583     652
     Max         185      74     21                18149     4592     657
     Sum        5909    2361    641               580679   146829   20929



     bravais-lattice index     =            8
     lattice parameter (alat)  =      15.7246  a.u.
     unit-cell volume          =    6616.6507 (a.u.)^3
     number of atoms/cell      =           16
     number of atomic types    =            1
     number of electrons       =       304.00
     number of Kohn-Sham states=          182
     kinetic-energy cutoff     =      30.0000  Ry
     charge density cutoff     =     300.0000  Ry
     scf convergence threshold =      1.0E-06
     mixing beta               =       0.3000
     number of iterations used =            8  plain     mixing
     energy convergence thresh.=      1.0E-04
     force convergence thresh. =      1.0E-03
     Exchange-correlation=  SLA  PW   PBX  PBC
                           (   1   4   3   4   0   0   0)
     nstep                     =           50


     celldm(1)=  15.724600  celldm(2)=   1.000000  celldm(3)=   1.701764
     celldm(4)=   0.000000  celldm(5)=   0.000000  celldm(6)=   0.000000

     crystal axes: (cart. coord. in units of alat)
               a(1) = (   1.000000   0.000000   0.000000 )  
               a(2) = (   0.000000   1.000000   0.000000 )  
               a(3) = (   0.000000   0.000000   1.701764 )  

     reciprocal axes: (cart. coord. in units 2 pi/alat)
               b(1) = (  1.000000  0.000000  0.000000 )  
               b(2) = (  0.000000  1.000000  0.000000 )  
               b(3) = (  0.000000  0.000000  0.587625 )  


     PseudoPot. # 1 for Ag read from file:
     /expanse/lustre/projects/csd622/tpascal/nano110/qe/pseudo/ag_pbe_v1.4.uspp.F.UPF
     MD5 check sum: d66d668201baa78d5eb5b04ef7011058
     Pseudo is Ultrasoft + core correction, Zval = 19.0
     Generated by new atomic code, or converted to UPF format
     Using radial grid of  887 points,  6 beta functions with: 
                l(1) =   0
                l(2) =   0
                l(3) =   1
                l(4) =   1
                l(5) =   2
                l(6) =   2
     Q(r) pseudized with  6 coefficients,  rinner =    1.300   1.300   1.300
                                                       1.300   1.300

     atomic species   valence    mass     pseudopotential
        Ag            19.00   107.86820     Ag( 1.00)

      8 Sym. Ops. (no inversion) found


                                    s                        frac. trans.

      isym =  1     identity                                     

 cryst.   s( 1) = (     1          0          0      )
                  (     0          1          0      )
                  (     0          0          1      )

 cart.    s( 1) = (  1.0000000  0.0000000  0.0000000 )
                  (  0.0000000  1.0000000  0.0000000 )
                  (  0.0000000  0.0000000  1.0000000 )


      isym =  2     180 deg rotation - cart. axis [0,0,1]        

 cryst.   s( 2) = (    -1          0          0      )
                  (     0         -1          0      )
                  (     0          0          1      )

 cart.    s( 2) = ( -1.0000000  0.0000000  0.0000000 )
                  (  0.0000000 -1.0000000  0.0000000 )
                  (  0.0000000  0.0000000  1.0000000 )


      isym =  3      90 deg rotation - cart. axis [0,0,-1]       

 cryst.   s( 3) = (     0         -1          0      )
                  (     1          0          0      )
                  (     0          0          1      )

 cart.    s( 3) = (  0.0000000  1.0000000  0.0000000 )
                  ( -1.0000000  0.0000000  0.0000000 )
                  (  0.0000000  0.0000000  1.0000000 )


      isym =  4      90 deg rotation - cart. axis [0,0,1]        

 cryst.   s( 4) = (     0          1          0      )
                  (    -1          0          0      )
                  (     0          0          1      )

 cart.    s( 4) = (  0.0000000 -1.0000000  0.0000000 )
                  (  1.0000000  0.0000000  0.0000000 )
                  (  0.0000000  0.0000000  1.0000000 )


      isym =  5     inv. 180 deg rotation - cart. axis [0,1,0]   

 cryst.   s( 5) = (     1          0          0      )
                  (     0         -1          0      )
                  (     0          0          1      )

 cart.    s( 5) = (  1.0000000  0.0000000  0.0000000 )
                  (  0.0000000 -1.0000000  0.0000000 )
                  (  0.0000000  0.0000000  1.0000000 )


      isym =  6     inv. 180 deg rotation - cart. axis [1,0,0]   

 cryst.   s( 6) = (    -1          0          0      )
                  (     0          1          0      )
                  (     0          0          1      )

 cart.    s( 6) = ( -1.0000000  0.0000000  0.0000000 )
                  (  0.0000000  1.0000000  0.0000000 )
                  (  0.0000000  0.0000000  1.0000000 )


      isym =  7     inv. 180 deg rotation - cart. axis [1,1,0]   

 cryst.   s( 7) = (     0         -1          0      )
                  (    -1          0          0      )
                  (     0          0          1      )

 cart.    s( 7) = (  0.0000000 -1.0000000  0.0000000 )
                  ( -1.0000000  0.0000000  0.0000000 )
                  (  0.0000000  0.0000000  1.0000000 )


      isym =  8     inv. 180 deg rotation - cart. axis [1,-1,0]  

 cryst.   s( 8) = (     0          1          0      )
                  (     1          0          0      )
                  (     0          0          1      )

 cart.    s( 8) = (  0.0000000  1.0000000  0.0000000 )
                  (  1.0000000  0.0000000  0.0000000 )
                  (  0.0000000  0.0000000  1.0000000 )


     point group C_4v (4mm) 
     there are  5 classes
     the character table:

       E     2C4   C2    2s_v  2s_d 
A_1    1.00  1.00  1.00  1.00  1.00
A_2    1.00  1.00  1.00 -1.00 -1.00
B_1    1.00 -1.00  1.00  1.00 -1.00
B_2    1.00 -1.00  1.00 -1.00  1.00
E      2.00  0.00 -2.00  0.00  0.00

     the symmetry operations in each class and the name of the first element:

     E        1
          identity                                               
     2C4      3    4
           90 deg rotation - cart. axis [0,0,-1]                 
     C2       2
          180 deg rotation - cart. axis [0,0,1]                  
     2s_v     5    6
          inv. 180 deg rotation - cart. axis [0,1,0]             
     2s_d     7    8
          inv. 180 deg rotation - cart. axis [1,1,0]             

   Cartesian axes

     site n.     atom                  positions (alat units)
         1           Ag  tau(   1) = (   0.0000000   0.0000000   0.0000000  )
         2           Ag  tau(   2) = (   0.0000000   0.2499999   0.2499999  )
         3           Ag  tau(   3) = (   0.2499999   0.0000000   0.2499999  )
         4           Ag  tau(   4) = (   0.2499999   0.2499999   0.0000000  )
         5           Ag  tau(   5) = (   0.0000000   0.4999998   0.0000000  )
         6           Ag  tau(   6) = (   0.0000000   0.7499996   0.2499999  )
         7           Ag  tau(   7) = (   0.2499999   0.4999998   0.2499999  )
         8           Ag  tau(   8) = (   0.2499999   0.7499996   0.0000000  )
         9           Ag  tau(   9) = (   0.4999998   0.0000000   0.0000000  )
        10           Ag  tau(  10) = (   0.4999998   0.2499999   0.2499999  )
        11           Ag  tau(  11) = (   0.7499996   0.0000000   0.2499999  )
        12           Ag  tau(  12) = (   0.7499996   0.2499999   0.0000000  )
        13           Ag  tau(  13) = (   0.4999998   0.4999998   0.0000000  )
        14           Ag  tau(  14) = (   0.4999998   0.7499996   0.2499999  )
        15           Ag  tau(  15) = (   0.7499996   0.4999998   0.2499999  )
        16           Ag  tau(  16) = (   0.7499996   0.7499996   0.0000000  )

   Crystallographic axes

     site n.     atom                  positions (cryst. coord.)
         1           Ag  tau(   1) = (  0.0000000  0.0000000  0.0000000  )
         2           Ag  tau(   2) = (  0.0000000  0.2499999  0.1469063  )
         3           Ag  tau(   3) = (  0.2499999  0.0000000  0.1469063  )
         4           Ag  tau(   4) = (  0.2499999  0.2499999  0.0000000  )
         5           Ag  tau(   5) = (  0.0000000  0.4999998  0.0000000  )
         6           Ag  tau(   6) = (  0.0000000  0.7499996  0.1469063  )
         7           Ag  tau(   7) = (  0.2499999  0.4999998  0.1469063  )
         8           Ag  tau(   8) = (  0.2499999  0.7499996  0.0000000  )
         9           Ag  tau(   9) = (  0.4999998  0.0000000  0.0000000  )
        10           Ag  tau(  10) = (  0.4999998  0.2499999  0.1469063  )
        11           Ag  tau(  11) = (  0.7499996  0.0000000  0.1469063  )
        12           Ag  tau(  12) = (  0.7499996  0.2499999  0.0000000  )
        13           Ag  tau(  13) = (  0.4999998  0.4999998  0.0000000  )
        14           Ag  tau(  14) = (  0.4999998  0.7499996  0.1469063  )
        15           Ag  tau(  15) = (  0.7499996  0.4999998  0.1469063  )
        16           Ag  tau(  16) = (  0.7499996  0.7499996  0.0000000  )

     number of k points=    10  Gaussian smearing, width (Ry)=  0.0030
                       cart. coord. in units 2pi/alat
        k(    1) = (   0.0000000   0.0000000   0.0000000), wk =   0.0408163
        k(    2) = (   0.0000000   0.1428571   0.0000000), wk =   0.1632653
        k(    3) = (   0.0000000   0.2857143   0.0000000), wk =   0.1632653
        k(    4) = (   0.0000000   0.4285714   0.0000000), wk =   0.1632653
        k(    5) = (   0.1428571   0.1428571   0.0000000), wk =   0.1632653
        k(    6) = (   0.1428571   0.2857143   0.0000000), wk =   0.3265306
        k(    7) = (   0.1428571   0.4285714   0.0000000), wk =   0.3265306
        k(    8) = (   0.2857143   0.2857143   0.0000000), wk =   0.1632653
        k(    9) = (   0.2857143   0.4285714   0.0000000), wk =   0.3265306
        k(   10) = (   0.4285714   0.4285714   0.0000000), wk =   0.1632653

                       cryst. coord.
        k(    1) = (   0.0000000   0.0000000   0.0000000), wk =   0.0408163
        k(    2) = (   0.0000000   0.1428571   0.0000000), wk =   0.1632653
        k(    3) = (   0.0000000   0.2857143   0.0000000), wk =   0.1632653
        k(    4) = (   0.0000000   0.4285714   0.0000000), wk =   0.1632653
        k(    5) = (   0.1428571   0.1428571   0.0000000), wk =   0.1632653
        k(    6) = (   0.1428571   0.2857143   0.0000000), wk =   0.3265306
        k(    7) = (   0.1428571   0.4285714   0.0000000), wk =   0.3265306
        k(    8) = (   0.2857143   0.2857143   0.0000000), wk =   0.1632653
        k(    9) = (   0.2857143   0.4285714   0.0000000), wk =   0.3265306
        k(   10) = (   0.4285714   0.4285714   0.0000000), wk =   0.1632653

     Dense  grid:   580679 G-vectors     FFT dimensions: (  90,  90, 150)

     Smooth grid:   146829 G-vectors     FFT dimensions: (  60,  60,  96)

     Dynamical RAM for                 wfc:       1.59 MB

     Dynamical RAM for     wfc (w. buffer):      17.50 MB

     Dynamical RAM for           str. fact:       0.28 MB

     Dynamical RAM for           local pot:       0.00 MB

     Dynamical RAM for          nlocal pot:       2.52 MB

     Dynamical RAM for                qrad:       1.39 MB

     Dynamical RAM for          rho,v,vnew:       1.76 MB

     Dynamical RAM for               rhoin:       0.59 MB

     Dynamical RAM for            rho*nmix:       4.43 MB

     Dynamical RAM for           G-vectors:       1.07 MB

     Dynamical RAM for          h,s,v(r/c):       0.24 MB

     Dynamical RAM for          <psi|beta>:       0.80 MB

     Dynamical RAM for                 psi:       3.18 MB

     Dynamical RAM for                hpsi:       3.18 MB

     Dynamical RAM for                spsi:       3.18 MB

     Dynamical RAM for      wfcinit/wfcrot:       4.63 MB

     Dynamical RAM for           addusdens:      55.92 MB

     Dynamical RAM for          addusforce:      64.43 MB

     Dynamical RAM for         addusstress:      55.65 MB

     Estimated static dynamical RAM per process >      31.63 MB

     Estimated max dynamical RAM per process >      96.07 MB

     Estimated total dynamical RAM >       3.00 GB

     Initial potential from superposition of free atoms

     starting charge  295.99924, renormalised to  304.00000

     negative rho (up, down):  5.356E-03 0.000E+00
     Starting wfcs are  208 randomized atomic wfcs

     total cpu time spent up to now is        2.3 secs

     Self-consistent Calculation

     iteration #  1     ecut=    30.00 Ry     beta= 0.30
     Davidson diagonalization with overlap
     ethr =  1.00E-02,  avg # of iterations =  7.2

     negative rho (up, down):  1.749E-04 0.000E+00

     total cpu time spent up to now is        9.5 secs

     total energy              =   -4722.94757800 Ry
     estimated scf accuracy    <      27.52571055 Ry

     iteration #  2     ecut=    30.00 Ry     beta= 0.30
     Davidson diagonalization with overlap
     ethr =  9.05E-03,  avg # of iterations =  2.0

     negative rho (up, down):  4.672E-04 0.000E+00

     total cpu time spent up to now is       14.6 secs

     total energy              =   -4729.10672240 Ry
     estimated scf accuracy    <       1.47670054 Ry

     iteration #  3     ecut=    30.00 Ry     beta= 0.30
     Davidson diagonalization with overlap
     ethr =  4.86E-04,  avg # of iterations =  3.2

     negative rho (up, down):  1.035E-03 0.000E+00

     total cpu time spent up to now is       19.8 secs

     total energy              =   -4729.28422721 Ry
     estimated scf accuracy    <       0.05758526 Ry

     iteration #  4     ecut=    30.00 Ry     beta= 0.30
     Davidson diagonalization with overlap
     ethr =  1.89E-05,  avg # of iterations =  9.7

     negative rho (up, down):  4.169E-03 0.000E+00

     total cpu time spent up to now is       27.4 secs

     total energy              =   -4729.28880274 Ry
     estimated scf accuracy    <       0.01205937 Ry

     iteration #  5     ecut=    30.00 Ry     beta= 0.30
     Davidson diagonalization with overlap
     ethr =  3.97E-06,  avg # of iterations =  5.9

     negative rho (up, down):  3.930E-03 0.000E+00

     total cpu time spent up to now is       33.5 secs

     total energy              =   -4729.28960443 Ry
     estimated scf accuracy    <       0.00025768 Ry

     iteration #  6     ecut=    30.00 Ry     beta= 0.30
     Davidson diagonalization with overlap
     ethr =  8.48E-08,  avg # of iterations =  2.0

     negative rho (up, down):  4.359E-03 0.000E+00

     total cpu time spent up to now is       38.4 secs

     total energy              =   -4729.28963964 Ry
     estimated scf accuracy    <       0.00005256 Ry

     iteration #  7     ecut=    30.00 Ry     beta= 0.30
     Davidson diagonalization with overlap
     ethr =  1.73E-08,  avg # of iterations =  2.0

     negative rho (up, down):  4.386E-03 0.000E+00

     total cpu time spent up to now is       43.2 secs

     total energy              =   -4729.28964615 Ry
     estimated scf accuracy    <       0.00000556 Ry

     iteration #  8     ecut=    30.00 Ry     beta= 0.30
     Davidson diagonalization with overlap
     ethr =  1.83E-09,  avg # of iterations =  2.0

     negative rho (up, down):  4.446E-03 0.000E+00

     total cpu time spent up to now is       47.4 secs

     End of self-consistent calculation

          k = 0.0000 0.0000 0.0000 ( 18383 PWs)   bands (ev):

   -89.9721 -89.9655 -89.9655 -89.9655 -89.9655 -89.9634 -89.9634 -89.9634
   -89.9632 -89.9632 -89.9611 -89.9611 -89.9611 -89.9611 -89.9590 -89.9588
   -53.4907 -53.4907 -53.4878 -53.4877 -53.4876 -53.4876 -53.4577 -53.4577
   -53.4577 -53.4577 -53.4571 -53.4571 -53.4571 -53.4571 -53.4537 -53.4537
   -53.4501 -53.4449 -53.4449 -53.4449 -53.4449 -53.4263 -53.4263 -53.4263
   -53.4263 -53.4232 -53.4232 -53.4169 -53.4169 -53.4169 -53.4169 -53.4073
   -53.4071 -53.4056 -53.4055 -53.4054 -53.4054 -53.4042 -53.4042 -53.4041
   -53.4041 -53.3991 -53.3991 -53.3912 -53.3912 -53.3912 -53.3912 -53.3882
    -4.2595  -3.7783  -3.7447  -3.6366  -3.6365  -3.5663  -3.5663  -3.5663
    -3.5663  -3.4373  -3.4373  -3.1391  -3.1391  -3.1390  -3.1390  -3.1329
    -3.1329  -3.1329  -3.1329  -3.0877  -3.0164  -3.0164  -3.0164  -3.0164
    -2.8095  -2.8095  -2.8094  -2.8094  -2.6823  -2.6823  -2.6823  -2.6823
    -2.4107  -2.4107  -2.4107  -2.4107  -2.3487  -2.3487  -2.3486  -2.3486
    -2.2825  -2.2825  -2.2825  -2.2825  -2.2757  -2.2757  -2.2588  -2.2588
    -2.2588  -2.2588  -2.0967  -1.8845  -1.8845  -1.8845  -1.8845  -1.8396
    -1.8396  -1.8396  -1.8396  -1.8001  -1.8001  -1.6722  -1.6722  -1.6721
    -1.6721  -1.6125  -1.5309  -1.5308  -1.4344  -1.4344  -1.4344  -1.4344
    -1.4326  -1.4326  -1.4325  -1.4325  -1.3293  -1.3293  -1.2603  -0.8852
    -0.8850  -0.6107  -0.6107  -0.6106  -0.6106   0.1735   1.8608   1.8608
     1.8609   1.8609   2.5098   2.5098   2.5098   2.5098   3.0341   4.7825
     4.7825   4.7826   4.7827   5.1167   5.1167   5.7402   5.9200   5.9200
     5.9201   5.9201   6.1421   8.0278   8.0278   8.0282   8.0282   8.1712
     8.1713   8.1713   8.1713   8.6612   8.6613   8.6615

     occupation numbers 
     1.0000   1.0000   1.0000   1.0000   1.0000   1.0000   1.0000   1.0000
     1.0000   1.0000   1.0000   1.0000   1.0000   1.0000   1.0000   1.0000
     1.0000   1.0000   1.0000   1.0000   1.0000   1.0000   1.0000   1.0000
     1.0000   1.0000   1.0000   1.0000   1.0000   1.0000   1.0000   1.0000
     1.0000   1.0000   1.0000   1.0000   1.0000   1.0000   1.0000   1.0000
     1.0000   1.0000   1.0000   1.0000   1.0000   1.0000   1.0000   1.0000
     1.0000   1.0000   1.0000   1.0000   1.0000   1.0000   1.0000   1.0000
     1.0000   1.0000   1.0000   1.0000   1.0000   1.0000   1.0000   1.0000
     1.0000   1.0000   1.0000   1.0000   1.0000   1.0000   1.0000   1.0000
     1.0000   1.0000   1.0000   1.0000   1.0000   1.0000   1.0000   1.0000
     1.0000   1.0000   1.0000   1.0000   1.0000   1.0000   1.0000   1.0000
     1.0000   1.0000   1.0000   1.0000   1.0000   1.0000   1.0000   1.0000
     1.0000   1.0000   1.0000   1.0000   1.0000   1.0000   1.0000   1.0000
     1.0000   1.0000   1.0000   1.0000   1.0000   1.0000   1.0000   1.0000
     1.0000   1.0000   1.0000   1.0000   1.0000   1.0000   1.0000   1.0000
     1.0000   1.0000   1.0000   1.0000   1.0000   1.0000   1.0000   1.0000
     1.0000   1.0000   1.0000   1.0000   1.0000   1.0000   1.0000   1.0000
     1.0000   1.0000   1.0000   1.0000   1.0000   1.0000   1.0000   1.0000
     1.0000   1.0000   1.0000   1.0000   1.0000   1.0000   0.0000   0.0000
     0.0000   0.0000   0.0000   0.0000   0.0000   0.0000   0.0000   0.0000
     0.0000   0.0000   0.0000   0.0000   0.0000   0.0000   0.0000   0.0000
     0.0000   0.0000   0.0000   0.0000   0.0000   0.0000   0.0000   0.0000
     0.0000   0.0000   0.0000   0.0000   0.0000   0.0000

          k = 0.0000 0.1429 0.0000 ( 18383 PWs)   bands (ev):

   -89.9719 -89.9669 -89.9655 -89.9655 -89.9641 -89.9638 -89.9638 -89.9633
   -89.9628 -89.9628 -89.9616 -89.9612 -89.9611 -89.9606 -89.9591 -89.9589
   -53.4901 -53.4901 -53.4878 -53.4878 -53.4858 -53.4858 -53.4646 -53.4632
   -53.4614 -53.4613 -53.4600 -53.4600 -53.4539 -53.4531 -53.4521 -53.4499
   -53.4495 -53.4484 -53.4416 -53.4405 -53.4405 -53.4325 -53.4243 -53.4242
   -53.4241 -53.4240 -53.4195 -53.4166 -53.4166 -53.4157 -53.4156 -53.4081
   -53.4081 -53.4076 -53.4074 -53.4074 -53.4070 -53.4050 -53.4050 -53.4017
   -53.4017 -53.3997 -53.3997 -53.3940 -53.3915 -53.3914 -53.3884 -53.3879
    -4.2124  -3.7581  -3.7160  -3.6149  -3.6140  -3.5527  -3.5527  -3.5480
    -3.5479  -3.4274  -3.4268  -3.1953  -3.1879  -3.1678  -3.1661  -3.1661
    -3.1649  -3.1649  -3.1519  -3.0710  -3.0687  -3.0530  -3.0044  -3.0044
    -2.8848  -2.8513  -2.8513  -2.7531  -2.7531  -2.6696  -2.6696  -2.4990
    -2.4748  -2.4695  -2.4347  -2.4346  -2.3718  -2.3718  -2.3621  -2.3621
    -2.3521  -2.3260  -2.3260  -2.2873  -2.2865  -2.2118  -2.2092  -2.2092
    -2.1314  -2.0999  -2.0979  -2.0235  -1.8731  -1.8200  -1.8200  -1.8194
    -1.8194  -1.8145  -1.8007  -1.7655  -1.7520  -1.7322  -1.7322  -1.6440
    -1.6127  -1.6127  -1.5426  -1.5362  -1.4766  -1.4766  -1.4369  -1.4368
    -1.4267  -1.4219  -1.4153  -1.4153  -1.3407  -1.3330  -1.2760  -1.0236
    -0.9471  -0.9174  -0.5711  -0.5710   0.0122   0.2243   1.1936   1.1937
     1.9040   2.5492   2.5492   2.5844   2.5844   3.1108   3.2090   4.2899
     4.2899   4.6631   5.2231   5.2546   5.3659   5.3660   5.7878   5.9567
     5.9568   6.1832   6.6462   7.4311   7.6311   7.8615   8.0325   8.0325
     8.0671   8.0675   8.1681   8.1682   8.2199   8.2199

     occupation numbers 
     1.0000   1.0000   1.0000   1.0000   1.0000   1.0000   1.0000   1.0000
     1.0000   1.0000   1.0000   1.0000   1.0000   1.0000   1.0000   1.0000
     1.0000   1.0000   1.0000   1.0000   1.0000   1.0000   1.0000   1.0000
     1.0000   1.0000   1.0000   1.0000   1.0000   1.0000   1.0000   1.0000
     1.0000   1.0000   1.0000   1.0000   1.0000   1.0000   1.0000   1.0000
     1.0000   1.0000   1.0000   1.0000   1.0000   1.0000   1.0000   1.0000
     1.0000   1.0000   1.0000   1.0000   1.0000   1.0000   1.0000   1.0000
     1.0000   1.0000   1.0000   1.0000   1.0000   1.0000   1.0000   1.0000
     1.0000   1.0000   1.0000   1.0000   1.0000   1.0000   1.0000   1.0000
     1.0000   1.0000   1.0000   1.0000   1.0000   1.0000   1.0000   1.0000
     1.0000   1.0000   1.0000   1.0000   1.0000   1.0000   1.0000   1.0000
     1.0000   1.0000   1.0000   1.0000   1.0000   1.0000   1.0000   1.0000
     1.0000   1.0000   1.0000   1.0000   1.0000   1.0000   1.0000   1.0000
     1.0000   1.0000   1.0000   1.0000   1.0000   1.0000   1.0000   1.0000
     1.0000   1.0000   1.0000   1.0000   1.0000   1.0000   1.0000   1.0000
     1.0000   1.0000   1.0000   1.0000   1.0000   1.0000   1.0000   1.0000
     1.0000   1.0000   1.0000   1.0000   1.0000   1.0000   1.0000   1.0000
     1.0000   1.0000   1.0000   1.0000   1.0000   1.0000   1.0000   1.0000
     1.0000   1.0000   1.0000   1.0000   1.0000   1.0000   1.0000   1.0000
     0.0000   0.0000   0.0000   0.0000   0.0000   0.0000   0.0000   0.0000
     0.0000   0.0000   0.0000   0.0000   0.0000   0.0000   0.0000   0.0000
     0.0000   0.0000   0.0000   0.0000   0.0000   0.0000   0.0000   0.0000
     0.0000   0.0000   0.0000   0.0000   0.0000   0.0000

          k = 0.0000 0.2857 0.0000 ( 18331 PWs)   bands (ev):

   -89.9715 -89.9683 -89.9653 -89.9653 -89.9643 -89.9642 -89.9632 -89.9627
   -89.9624 -89.9623 -89.9620 -89.9613 -89.9613 -89.9602 -89.9596 -89.9591
   -53.4875 -53.4863 -53.4851 -53.4851 -53.4823 -53.4822 -53.4714 -53.4700
   -53.4688 -53.4688 -53.4649 -53.4649 -53.4537 -53.4512 -53.4511 -53.4499
   -53.4497 -53.4425 -53.4383 -53.4377 -53.4318 -53.4317 -53.4266 -53.4266
   -53.4195 -53.4195 -53.4145 -53.4145 -53.4140 -53.4138 -53.4130 -53.4119
   -53.4119 -53.4101 -53.4100 -53.4084 -53.4059 -53.4059 -53.4054 -53.4018
   -53.4015 -53.3985 -53.3985 -53.3968 -53.3922 -53.3922 -53.3877 -53.3870
    -4.0744  -3.6980  -3.6322  -3.5505  -3.5475  -3.5068  -3.5068  -3.4975
    -3.4974  -3.3953  -3.3952  -3.3287  -3.3265  -3.2661  -3.2456  -3.2456
    -3.2350  -3.2350  -3.2116  -3.1832  -3.1771  -3.0731  -3.0133  -2.9753
    -2.9753  -2.8823  -2.8823  -2.6825  -2.6825  -2.6457  -2.6293  -2.6293
    -2.4888  -2.4674  -2.4674  -2.4162  -2.4162  -2.4109  -2.4109  -2.4101
    -2.4101  -2.3870  -2.3214  -2.3158  -2.2764  -2.1117  -2.1105  -2.1058
    -2.1058  -2.0246  -1.9464  -1.9459  -1.8500  -1.8328  -1.8033  -1.8000
    -1.7999  -1.7645  -1.7645  -1.7364  -1.6902  -1.6902  -1.6808  -1.6340
    -1.5802  -1.5548  -1.5548  -1.5522  -1.5397  -1.5397  -1.4463  -1.4463
    -1.4283  -1.4283  -1.4013  -1.3791  -1.3639  -1.3428  -1.3234  -1.2442
    -1.1191  -1.0086  -0.4426  -0.4425   0.3754   0.6182   0.6183   0.8005
     1.3886   2.6668   2.6669   3.1486   3.1486   3.3320   3.7291   4.0025
     4.1306   4.1306   4.6534   5.5284   5.9162   5.9163   5.9304   6.0575
     6.0576   6.3068   6.8734   6.8734   6.8739   6.9200   7.1746   7.2920
     7.4289   7.8869   7.8869   8.1742   8.1745   8.3452

     occupation numbers 
     1.0000   1.0000   1.0000   1.0000   1.0000   1.0000   1.0000   1.0000
     1.0000   1.0000   1.0000   1.0000   1.0000   1.0000   1.0000   1.0000
     1.0000   1.0000   1.0000   1.0000   1.0000   1.0000   1.0000   1.0000
     1.0000   1.0000   1.0000   1.0000   1.0000   1.0000   1.0000   1.0000
     1.0000   1.0000   1.0000   1.0000   1.0000   1.0000   1.0000   1.0000
     1.0000   1.0000   1.0000   1.0000   1.0000   1.0000   1.0000   1.0000
     1.0000   1.0000   1.0000   1.0000   1.0000   1.0000   1.0000   1.0000
     1.0000   1.0000   1.0000   1.0000   1.0000   1.0000   1.0000   1.0000
     1.0000   1.0000   1.0000   1.0000   1.0000   1.0000   1.0000   1.0000
     1.0000   1.0000   1.0000   1.0000   1.0000   1.0000   1.0000   1.0000
     1.0000   1.0000   1.0000   1.0000   1.0000   1.0000   1.0000   1.0000
     1.0000   1.0000   1.0000   1.0000   1.0000   1.0000   1.0000   1.0000
     1.0000   1.0000   1.0000   1.0000   1.0000   1.0000   1.0000   1.0000
     1.0000   1.0000   1.0000   1.0000   1.0000   1.0000   1.0000   1.0000
     1.0000   1.0000   1.0000   1.0000   1.0000   1.0000   1.0000   1.0000
     1.0000   1.0000   1.0000   1.0000   1.0000   1.0000   1.0000   1.0000
     1.0000   1.0000   1.0000   1.0000   1.0000   1.0000   1.0000   1.0000
     1.0000   1.0000   1.0000   1.0000   1.0000   1.0000   1.0000   1.0000
     1.0000   1.0000   1.0000   1.0000   1.0000   1.0000   1.0000   1.0000
     1.0000   0.0000   0.0000   0.0000   0.0000   0.0000   0.0000   0.0000
     0.0000   0.0000   0.0000   0.0000   0.0000   0.0000   0.0000   0.0000
     0.0000   0.0000   0.0000   0.0000   0.0000   0.0000   0.0000   0.0000
     0.0000   0.0000   0.0000   0.0000   0.0000   0.0000

          k = 0.0000 0.4286 0.0000 ( 18332 PWs)   bands (ev):

   -89.9707 -89.9696 -89.9651 -89.9650 -89.9646 -89.9646 -89.9629 -89.9625
   -89.9620 -89.9619 -89.9616 -89.9615 -89.9614 -89.9604 -89.9598 -89.9593
   -53.4832 -53.4830 -53.4810 -53.4810 -53.4779 -53.4768 -53.4768 -53.4768
   -53.4759 -53.4759 -53.4710 -53.4710 -53.4537 -53.4528 -53.4494 -53.4489
   -53.4482 -53.4434 -53.4361 -53.4339 -53.4306 -53.4295 -53.4242 -53.4242
   -53.4171 -53.4171 -53.4158 -53.4158 -53.4129 -53.4129 -53.4120 -53.4119
   -53.4119 -53.4104 -53.4091 -53.4090 -53.4084 -53.4084 -53.4048 -53.4047
   -53.4033 -53.3999 -53.3960 -53.3960 -53.3940 -53.3939 -53.3869 -53.3865
    -3.8572  -3.6007  -3.5886  -3.5022  -3.4720  -3.4573  -3.4445  -3.4337
    -3.4336  -3.4207  -3.4207  -3.3556  -3.3455  -3.3422  -3.3422  -3.3413
    -3.3357  -3.3279  -3.3279  -3.3168  -3.2814  -3.2300  -2.9408  -2.9408
    -2.9226  -2.9094  -2.9094  -2.7987  -2.6024  -2.6024  -2.5701  -2.5701
    -2.4983  -2.4983  -2.4792  -2.4792  -2.4790  -2.4790  -2.4591  -2.4591
    -2.4353  -2.3793  -2.3734  -2.3507  -2.1598  -2.1309  -2.0478  -1.9913
    -1.9913  -1.9569  -1.9014  -1.8860  -1.8860  -1.8796  -1.8550  -1.8160
    -1.7390  -1.6925  -1.6925  -1.6535  -1.6471  -1.6219  -1.6142  -1.6142
    -1.5807  -1.5664  -1.5664  -1.5112  -1.5055  -1.5055  -1.4766  -1.4766
    -1.4680  -1.4680  -1.4022  -1.3796  -1.3725  -1.3661  -1.3587  -1.3424
    -1.2764  -1.1394  -0.2064  -0.2063   0.1483   0.1484   0.6227   0.9616
     1.7097   2.7026   2.8576   2.8577   3.0922   3.0922   3.6772   4.1238
     4.7704   4.7705   4.8868   5.7627   5.7627   5.8523   5.9991   6.1676
     6.1833   6.1834   6.2091   6.2092   6.4980   6.5130   6.5974   6.8021
     7.9948   7.9949   8.2562   8.2564   8.2595   8.5599

     occupation numbers 
     1.0000   1.0000   1.0000   1.0000   1.0000   1.0000   1.0000   1.0000
     1.0000   1.0000   1.0000   1.0000   1.0000   1.0000   1.0000   1.0000
     1.0000   1.0000   1.0000   1.0000   1.0000   1.0000   1.0000   1.0000
     1.0000   1.0000   1.0000   1.0000   1.0000   1.0000   1.0000   1.0000
     1.0000   1.0000   1.0000   1.0000   1.0000   1.0000   1.0000   1.0000
     1.0000   1.0000   1.0000   1.0000   1.0000   1.0000   1.0000   1.0000
     1.0000   1.0000   1.0000   1.0000   1.0000   1.0000   1.0000   1.0000
     1.0000   1.0000   1.0000   1.0000   1.0000   1.0000   1.0000   1.0000
     1.0000   1.0000   1.0000   1.0000   1.0000   1.0000   1.0000   1.0000
     1.0000   1.0000   1.0000   1.0000   1.0000   1.0000   1.0000   1.0000
     1.0000   1.0000   1.0000   1.0000   1.0000   1.0000   1.0000   1.0000
     1.0000   1.0000   1.0000   1.0000   1.0000   1.0000   1.0000   1.0000
     1.0000   1.0000   1.0000   1.0000   1.0000   1.0000   1.0000   1.0000
     1.0000   1.0000   1.0000   1.0000   1.0000   1.0000   1.0000   1.0000
     1.0000   1.0000   1.0000   1.0000   1.0000   1.0000   1.0000   1.0000
     1.0000   1.0000   1.0000   1.0000   1.0000   1.0000   1.0000   1.0000
     1.0000   1.0000   1.0000   1.0000   1.0000   1.0000   1.0000   1.0000
     1.0000   1.0000   1.0000   1.0000   1.0000   1.0000   1.0000   1.0000
     1.0000   1.0000   1.0000   1.0000   1.0000   1.0000   1.0000   1.0000
     0.0007   0.0000   0.0000   0.0000   0.0000   0.0000   0.0000   0.0000
     0.0000   0.0000   0.0000   0.0000   0.0000   0.0000   0.0000   0.0000
     0.0000   0.0000   0.0000   0.0000   0.0000   0.0000   0.0000   0.0000
     0.0000   0.0000   0.0000   0.0000   0.0000   0.0000

          k = 0.1429 0.1429 0.0000 ( 18375 PWs)   bands (ev):

   -89.9718 -89.9669 -89.9669 -89.9645 -89.9640 -89.9640 -89.9633 -89.9632
   -89.9630 -89.9626 -89.9616 -89.9616 -89.9607 -89.9607 -89.9593 -89.9591
   -53.4898 -53.4898 -53.4871 -53.4869 -53.4860 -53.4828 -53.4675 -53.4675
   -53.4652 -53.4652 -53.4549 -53.4549 -53.4544 -53.4544 -53.4536 -53.4535
   -53.4497 -53.4444 -53.4444 -53.4359 -53.4359 -53.4301 -53.4301 -53.4268
   -53.4228 -53.4196 -53.4196 -53.4157 -53.4157 -53.4141 -53.4141 -53.4104
   -53.4089 -53.4087 -53.4084 -53.4080 -53.4078 -53.4042 -53.4040 -53.4034
   -53.4017 -53.3993 -53.3992 -53.3942 -53.3942 -53.3890 -53.3890 -53.3880
    -4.1677  -3.7525  -3.6737  -3.5926  -3.5924  -3.5618  -3.5525  -3.5149
    -3.5149  -3.4176  -3.4176  -3.2423  -3.2423  -3.2057  -3.2057  -3.2006
    -3.2006  -3.1730  -3.1730  -3.0535  -3.0535  -3.0487  -3.0261  -3.0261
    -2.8994  -2.8707  -2.8707  -2.7855  -2.7854  -2.7079  -2.4934  -2.4934
    -2.4722  -2.4722  -2.4578  -2.4578  -2.4354  -2.4353  -2.3398  -2.3252
    -2.3241  -2.3241  -2.3125  -2.2908  -2.2908  -2.2706  -2.1616  -2.1616
    -2.1036  -2.0602  -2.0602  -1.9662  -1.9662  -1.8450  -1.8408  -1.8408
    -1.8144  -1.8144  -1.7368  -1.7368  -1.7257  -1.7257  -1.6687  -1.6295
    -1.6294  -1.6015  -1.5516  -1.5515  -1.4915  -1.4806  -1.4805  -1.4291
    -1.4291  -1.4219  -1.4219  -1.3841  -1.3699  -1.3078  -1.2896  -1.0086
    -1.0086  -0.9769  -0.9767   0.0748   0.0748   0.2737   0.4904   1.9411
     1.9411   1.9919   1.9920   2.9853   3.1856   3.2523   3.2523   4.0711
     4.7627   4.7627   4.8805   4.8807   5.2987   5.2987   5.7952   5.8353
     6.2244   6.6721   6.6721   7.3250   7.3250   7.4743   7.4743   7.6734
     7.6734   7.8180   8.7339   8.7340   8.7361   8.7364

     occupation numbers 
     1.0000   1.0000   1.0000   1.0000   1.0000   1.0000   1.0000   1.0000
     1.0000   1.0000   1.0000   1.0000   1.0000   1.0000   1.0000   1.0000
     1.0000   1.0000   1.0000   1.0000   1.0000   1.0000   1.0000   1.0000
     1.0000   1.0000   1.0000   1.0000   1.0000   1.0000   1.0000   1.0000
     1.0000   1.0000   1.0000   1.0000   1.0000   1.0000   1.0000   1.0000
     1.0000   1.0000   1.0000   1.0000   1.0000   1.0000   1.0000   1.0000
     1.0000   1.0000   1.0000   1.0000   1.0000   1.0000   1.0000   1.0000
     1.0000   1.0000   1.0000   1.0000   1.0000   1.0000   1.0000   1.0000
     1.0000   1.0000   1.0000   1.0000   1.0000   1.0000   1.0000   1.0000
     1.0000   1.0000   1.0000   1.0000   1.0000   1.0000   1.0000   1.0000
     1.0000   1.0000   1.0000   1.0000   1.0000   1.0000   1.0000   1.0000
     1.0000   1.0000   1.0000   1.0000   1.0000   1.0000   1.0000   1.0000
     1.0000   1.0000   1.0000   1.0000   1.0000   1.0000   1.0000   1.0000
     1.0000   1.0000   1.0000   1.0000   1.0000   1.0000   1.0000   1.0000
     1.0000   1.0000   1.0000   1.0000   1.0000   1.0000   1.0000   1.0000
     1.0000   1.0000   1.0000   1.0000   1.0000   1.0000   1.0000   1.0000
     1.0000   1.0000   1.0000   1.0000   1.0000   1.0000   1.0000   1.0000
     1.0000   1.0000   1.0000   1.0000   1.0000   1.0000   1.0000   1.0000
     1.0000   1.0000   1.0000   1.0000   1.0000   1.0000   1.0000   0.0000
     0.0000   0.0000   0.0000   0.0000   0.0000   0.0000   0.0000   0.0000
     0.0000   0.0000   0.0000   0.0000   0.0000   0.0000   0.0000   0.0000
     0.0000   0.0000   0.0000   0.0000   0.0000   0.0000   0.0000   0.0000
     0.0000   0.0000   0.0000   0.0000   0.0000   0.0000

          k = 0.1429 0.2857 0.0000 ( 18358 PWs)   bands (ev):

   -89.9713 -89.9682 -89.9667 -89.9652 -89.9640 -89.9634 -89.9631 -89.9627
   -89.9624 -89.9623 -89.9620 -89.9617 -89.9610 -89.9603 -89.9596 -89.9592
   -53.4870 -53.4864 -53.4859 -53.4852 -53.4822 -53.4782 -53.4745 -53.4739
   -53.4716 -53.4705 -53.4627 -53.4596 -53.4522 -53.4510 -53.4506 -53.4496
   -53.4487 -53.4477 -53.4366 -53.4365 -53.4317 -53.4312 -53.4278 -53.4253
   -53.4228 -53.4188 -53.4166 -53.4150 -53.4139 -53.4138 -53.4130 -53.4112
   -53.4111 -53.4106 -53.4096 -53.4083 -53.4070 -53.4058 -53.4046 -53.4028
   -53.4016 -53.3995 -53.3974 -53.3964 -53.3953 -53.3900 -53.3878 -53.3875
    -4.0373  -3.7124  -3.5737  -3.5410  -3.5290  -3.5265  -3.5260  -3.4586
    -3.4545  -3.3876  -3.3867  -3.3760  -3.3582  -3.3296  -3.2932  -3.2677
    -3.2403  -3.2287  -3.2261  -3.1594  -3.1224  -3.0589  -3.0064  -2.9901
    -2.9871  -2.9309  -2.8260  -2.8167  -2.7083  -2.6493  -2.5962  -2.5139
    -2.5039  -2.5005  -2.4778  -2.4709  -2.4317  -2.3949  -2.3772  -2.3566
    -2.3443  -2.3034  -2.2916  -2.2766  -2.2705  -2.2538  -2.1155  -2.0939
    -2.0898  -2.0024  -1.9629  -1.9568  -1.9498  -1.8474  -1.8149  -1.8047
    -1.7670  -1.7553  -1.7485  -1.6961  -1.6805  -1.6739  -1.6607  -1.6251
    -1.5980  -1.5818  -1.5752  -1.5563  -1.5503  -1.5265  -1.4896  -1.4490
    -1.4292  -1.4212  -1.4168  -1.3700  -1.3606  -1.3328  -1.3002  -1.2332
    -1.1343  -1.0550  -0.9566  -0.1018   0.2597   0.4211   0.8769   1.4253
     1.4354   2.0536   2.8237   2.8596   3.3787   3.4020   3.8220   4.0506
     4.4536   4.6052   4.7039   5.0467   5.4261   5.5844   5.9646   5.9778
     6.1925   6.3481   6.6514   6.7251   6.9651   6.9673   7.2165   7.4321
     7.6011   7.6045   7.8009   7.8414   8.3123   8.6934

     occupation numbers 
     1.0000   1.0000   1.0000   1.0000   1.0000   1.0000   1.0000   1.0000
     1.0000   1.0000   1.0000   1.0000   1.0000   1.0000   1.0000   1.0000
     1.0000   1.0000   1.0000   1.0000   1.0000   1.0000   1.0000   1.0000
     1.0000   1.0000   1.0000   1.0000   1.0000   1.0000   1.0000   1.0000
     1.0000   1.0000   1.0000   1.0000   1.0000   1.0000   1.0000   1.0000
     1.0000   1.0000   1.0000   1.0000   1.0000   1.0000   1.0000   1.0000
     1.0000   1.0000   1.0000   1.0000   1.0000   1.0000   1.0000   1.0000
     1.0000   1.0000   1.0000   1.0000   1.0000   1.0000   1.0000   1.0000
     1.0000   1.0000   1.0000   1.0000   1.0000   1.0000   1.0000   1.0000
     1.0000   1.0000   1.0000   1.0000   1.0000   1.0000   1.0000   1.0000
     1.0000   1.0000   1.0000   1.0000   1.0000   1.0000   1.0000   1.0000
     1.0000   1.0000   1.0000   1.0000   1.0000   1.0000   1.0000   1.0000
     1.0000   1.0000   1.0000   1.0000   1.0000   1.0000   1.0000   1.0000
     1.0000   1.0000   1.0000   1.0000   1.0000   1.0000   1.0000   1.0000
     1.0000   1.0000   1.0000   1.0000   1.0000   1.0000   1.0000   1.0000
     1.0000   1.0000   1.0000   1.0000   1.0000   1.0000   1.0000   1.0000
     1.0000   1.0000   1.0000   1.0000   1.0000   1.0000   1.0000   1.0000
     1.0000   1.0000   1.0000   1.0000   1.0000   1.0000   1.0000   1.0000
     1.0000   1.0000   1.0000   1.0000   1.0000   1.0000   1.0000   1.0000
     1.0000   0.0000   0.0000   0.0000   0.0000   0.0000   0.0000   0.0000
     0.0000   0.0000   0.0000   0.0000   0.0000   0.0000   0.0000   0.0000
     0.0000   0.0000   0.0000   0.0000   0.0000   0.0000   0.0000   0.0000
     0.0000   0.0000   0.0000   0.0000   0.0000   0.0000

          k = 0.1429 0.4286 0.0000 ( 18355 PWs)   bands (ev):

   -89.9705 -89.9694 -89.9663 -89.9657 -89.9638 -89.9635 -89.9629 -89.9625
   -89.9621 -89.9618 -89.9618 -89.9614 -89.9613 -89.9604 -89.9599 -89.9595
   -53.4839 -53.4836 -53.4833 -53.4808 -53.4800 -53.4794 -53.4780 -53.4776
   -53.4760 -53.4724 -53.4711 -53.4661 -53.4520 -53.4505 -53.4496 -53.4493
   -53.4468 -53.4431 -53.4423 -53.4364 -53.4281 -53.4280 -53.4245 -53.4212
   -53.4201 -53.4189 -53.4179 -53.4157 -53.4152 -53.4139 -53.4128 -53.4127
   -53.4118 -53.4101 -53.4100 -53.4083 -53.4067 -53.4049 -53.4038 -53.4037
   -53.4014 -53.4005 -53.3986 -53.3966 -53.3936 -53.3914 -53.3871 -53.3868
    -3.8349  -3.6314  -3.5906  -3.5154  -3.4917  -3.4705  -3.4388  -3.4341
    -3.4256  -3.4184  -3.3894  -3.3841  -3.3793  -3.3468  -3.3403  -3.3277
    -3.3069  -3.3039  -3.3035  -3.2734  -3.2733  -3.2185  -2.9671  -2.9503
    -2.9383  -2.8852  -2.8673  -2.7542  -2.7471  -2.6823  -2.5838  -2.5300
    -2.5218  -2.5189  -2.4802  -2.4782  -2.4329  -2.4295  -2.4258  -2.3820
    -2.3803  -2.3346  -2.3319  -2.3015  -2.1628  -2.1625  -2.1367  -2.0629
    -2.0429  -1.9590  -1.8969  -1.8852  -1.8820  -1.8586  -1.8297  -1.8255
    -1.7555  -1.6879  -1.6856  -1.6507  -1.6394  -1.6147  -1.6145  -1.6127
    -1.6038  -1.5786  -1.5767  -1.5605  -1.5593  -1.5092  -1.4650  -1.4579
    -1.4471  -1.4353  -1.4256  -1.4066  -1.4060  -1.3534  -1.3055  -1.3029
    -1.2801  -1.1663  -0.8302  -0.5542   0.5570   0.6642   0.9529   0.9998
     1.7936   2.2439   2.5100   2.7913   3.5679   3.6005   3.7409   4.1807
     4.3090   4.9401   5.0972   5.4728   5.4824   5.6205   5.8393   5.9318
     6.0321   6.2145   6.2712   6.4960   6.5442   6.5543   6.6795   6.8436
     7.7964   7.9725   8.0126   8.0934   8.1749   8.2991

     occupation numbers 
     1.0000   1.0000   1.0000   1.0000   1.0000   1.0000   1.0000   1.0000
     1.0000   1.0000   1.0000   1.0000   1.0000   1.0000   1.0000   1.0000
     1.0000   1.0000   1.0000   1.0000   1.0000   1.0000   1.0000   1.0000
     1.0000   1.0000   1.0000   1.0000   1.0000   1.0000   1.0000   1.0000
     1.0000   1.0000   1.0000   1.0000   1.0000   1.0000   1.0000   1.0000
     1.0000   1.0000   1.0000   1.0000   1.0000   1.0000   1.0000   1.0000
     1.0000   1.0000   1.0000   1.0000   1.0000   1.0000   1.0000   1.0000
     1.0000   1.0000   1.0000   1.0000   1.0000   1.0000   1.0000   1.0000
     1.0000   1.0000   1.0000   1.0000   1.0000   1.0000   1.0000   1.0000
     1.0000   1.0000   1.0000   1.0000   1.0000   1.0000   1.0000   1.0000
     1.0000   1.0000   1.0000   1.0000   1.0000   1.0000   1.0000   1.0000
     1.0000   1.0000   1.0000   1.0000   1.0000   1.0000   1.0000   1.0000
     1.0000   1.0000   1.0000   1.0000   1.0000   1.0000   1.0000   1.0000
     1.0000   1.0000   1.0000   1.0000   1.0000   1.0000   1.0000   1.0000
     1.0000   1.0000   1.0000   1.0000   1.0000   1.0000   1.0000   1.0000
     1.0000   1.0000   1.0000   1.0000   1.0000   1.0000   1.0000   1.0000
     1.0000   1.0000   1.0000   1.0000   1.0000   1.0000   1.0000   1.0000
     1.0000   1.0000   1.0000   1.0000   1.0000   1.0000   1.0000   1.0000
     1.0000   1.0000   1.0000   1.0000   1.0000   1.0000   1.0000   1.0000
     0.0000   0.0000   0.0000   0.0000   0.0000   0.0000   0.0000   0.0000
     0.0000   0.0000   0.0000   0.0000   0.0000   0.0000   0.0000   0.0000
     0.0000   0.0000   0.0000   0.0000   0.0000   0.0000   0.0000   0.0000
     0.0000   0.0000   0.0000   0.0000   0.0000   0.0000

          k = 0.2857 0.2857 0.0000 ( 18371 PWs)   bands (ev):

   -89.9708 -89.9679 -89.9679 -89.9660 -89.9630 -89.9628 -89.9627 -89.9625
   -89.9624 -89.9622 -89.9621 -89.9619 -89.9606 -89.9606 -89.9598 -89.9596
   -53.4857 -53.4856 -53.4855 -53.4855 -53.4789 -53.4788 -53.4782 -53.4757
   -53.4757 -53.4732 -53.4567 -53.4567 -53.4549 -53.4549 -53.4502 -53.4494
   -53.4493 -53.4407 -53.4407 -53.4374 -53.4318 -53.4318 -53.4248 -53.4248
   -53.4208 -53.4184 -53.4184 -53.4170 -53.4168 -53.4159 -53.4125 -53.4125
   -53.4121 -53.4088 -53.4069 -53.4067 -53.4056 -53.4056 -53.4044 -53.4042
   -53.4014 -53.3990 -53.3982 -53.3982 -53.3942 -53.3885 -53.3884 -53.3876
    -3.9313  -3.7026  -3.5549  -3.5344  -3.4672  -3.4671  -3.4557  -3.4502
    -3.4502  -3.4202  -3.4202  -3.4032  -3.4032  -3.3610  -3.3610  -3.2795
    -3.2795  -3.2576  -3.2576  -3.0998  -3.0998  -3.0432  -3.0432  -3.0119
    -3.0119  -2.9589  -2.9081  -2.7787  -2.7787  -2.6002  -2.5403  -2.5402
    -2.5163  -2.5163  -2.4989  -2.4989  -2.4420  -2.3063  -2.3063  -2.3026
    -2.2583  -2.2463  -2.2463  -2.2313  -2.2313  -2.2278  -2.1388  -2.1388
    -2.1307  -2.1196  -1.9895  -1.9895  -1.9014  -1.9014  -1.8466  -1.8465
    -1.7963  -1.6752  -1.6752  -1.6531  -1.6531  -1.6470  -1.6468  -1.6330
    -1.6329  -1.6030  -1.6013  -1.6013  -1.5270  -1.5031  -1.5030  -1.5016
    -1.4648  -1.4648  -1.3653  -1.3617  -1.3617  -1.3168  -1.2767  -1.2144
    -1.2144  -1.1782  -1.1780  -0.7116   0.5590   1.0945   1.0945   1.5376
     1.5376   2.3422   2.3423   2.3849   3.6056   4.0859   4.0859   4.1891
     4.1891   4.8521   4.8521   5.1749   5.1750   5.3861   5.5614   5.5614
     5.7209   6.1195   6.4718   7.0994   7.0994   7.1583   7.1583   7.3421
     7.3421   7.3459   7.3459   7.8778   8.2270   8.3898

     occupation numbers 
     1.0000   1.0000   1.0000   1.0000   1.0000   1.0000   1.0000   1.0000
     1.0000   1.0000   1.0000   1.0000   1.0000   1.0000   1.0000   1.0000
     1.0000   1.0000   1.0000   1.0000   1.0000   1.0000   1.0000   1.0000
     1.0000   1.0000   1.0000   1.0000   1.0000   1.0000   1.0000   1.0000
     1.0000   1.0000   1.0000   1.0000   1.0000   1.0000   1.0000   1.0000
     1.0000   1.0000   1.0000   1.0000   1.0000   1.0000   1.0000   1.0000
     1.0000   1.0000   1.0000   1.0000   1.0000   1.0000   1.0000   1.0000
     1.0000   1.0000   1.0000   1.0000   1.0000   1.0000   1.0000   1.0000
     1.0000   1.0000   1.0000   1.0000   1.0000   1.0000   1.0000   1.0000
     1.0000   1.0000   1.0000   1.0000   1.0000   1.0000   1.0000   1.0000
     1.0000   1.0000   1.0000   1.0000   1.0000   1.0000   1.0000   1.0000
     1.0000   1.0000   1.0000   1.0000   1.0000   1.0000   1.0000   1.0000
     1.0000   1.0000   1.0000   1.0000   1.0000   1.0000   1.0000   1.0000
     1.0000   1.0000   1.0000   1.0000   1.0000   1.0000   1.0000   1.0000
     1.0000   1.0000   1.0000   1.0000   1.0000   1.0000   1.0000   1.0000
     1.0000   1.0000   1.0000   1.0000   1.0000   1.0000   1.0000   1.0000
     1.0000   1.0000   1.0000   1.0000   1.0000   1.0000   1.0000   1.0000
     1.0000   1.0000   1.0000   1.0000   1.0000   1.0000   1.0000   1.0000
     1.0000   1.0000   1.0000   1.0000   1.0000   1.0000   1.0000   0.9971
     0.9971   0.0000   0.0000   0.0000   0.0000   0.0000   0.0000   0.0000
     0.0000   0.0000   0.0000   0.0000   0.0000   0.0000   0.0000   0.0000
     0.0000   0.0000   0.0000   0.0000   0.0000   0.0000   0.0000   0.0000
     0.0000   0.0000   0.0000   0.0000   0.0000   0.0000

          k = 0.2857 0.4286 0.0000 ( 18370 PWs)   bands (ev):

   -89.9701 -89.9691 -89.9675 -89.9668 -89.9628 -89.9627 -89.9625 -89.9625
   -89.9622 -89.9620 -89.9617 -89.9614 -89.9610 -89.9605 -89.9603 -89.9599
   -53.4850 -53.4840 -53.4836 -53.4835 -53.4825 -53.4818 -53.4798 -53.4797
   -53.4719 -53.4665 -53.4649 -53.4605 -53.4520 -53.4506 -53.4503 -53.4476
   -53.4446 -53.4445 -53.4437 -53.4383 -53.4327 -53.4267 -53.4244 -53.4227
   -53.4208 -53.4208 -53.4189 -53.4185 -53.4177 -53.4160 -53.4147 -53.4123
   -53.4104 -53.4103 -53.4082 -53.4076 -53.4044 -53.4027 -53.4019 -53.4018
   -53.4014 -53.4009 -53.3998 -53.3995 -53.3917 -53.3900 -53.3882 -53.3876
    -3.7731  -3.6523  -3.5913  -3.5651  -3.5442  -3.5187  -3.5089  -3.4792
    -3.3920  -3.3793  -3.3506  -3.3503  -3.3308  -3.3133  -3.3083  -3.3075
    -3.3067  -3.3004  -3.2983  -3.2192  -3.1758  -3.1574  -3.0086  -2.9945
    -2.9739  -2.9334  -2.8947  -2.8389  -2.7758  -2.6171  -2.5450  -2.5224
    -2.5043  -2.4966  -2.4771  -2.4548  -2.4336  -2.3669  -2.3278  -2.3035
    -2.2867  -2.2681  -2.2636  -2.2352  -2.2109  -2.1978  -2.1523  -2.1509
    -2.0387  -2.0341  -1.9877  -1.9052  -1.8976  -1.8796  -1.8573  -1.8234
    -1.7663  -1.7641  -1.7300  -1.6975  -1.6953  -1.6643  -1.6477  -1.6164
    -1.5739  -1.5707  -1.5422  -1.5303  -1.5251  -1.5095  -1.5052  -1.4953
    -1.4918  -1.4289  -1.4228  -1.3787  -1.3630  -1.3344  -1.2983  -1.2736
    -1.2730  -1.2356  -1.1997  -1.1265   0.7907   1.1169   1.4278   1.7314
     1.8511   2.0136   2.0308   3.0421   3.3270   3.9272   4.2597   4.3480
     4.4862   4.6103   4.7974   4.9858   5.0878   5.0964   5.3915   6.0118
     6.0893   6.2930   6.3549   6.6784   6.6824   6.8391   6.9683   7.2973
     7.3183   7.4034   7.5528   7.5907   7.6061   7.8469

     occupation numbers 
     1.0000   1.0000   1.0000   1.0000   1.0000   1.0000   1.0000   1.0000
     1.0000   1.0000   1.0000   1.0000   1.0000   1.0000   1.0000   1.0000
     1.0000   1.0000   1.0000   1.0000   1.0000   1.0000   1.0000   1.0000
     1.0000   1.0000   1.0000   1.0000   1.0000   1.0000   1.0000   1.0000
     1.0000   1.0000   1.0000   1.0000   1.0000   1.0000   1.0000   1.0000
     1.0000   1.0000   1.0000   1.0000   1.0000   1.0000   1.0000   1.0000
     1.0000   1.0000   1.0000   1.0000   1.0000   1.0000   1.0000   1.0000
     1.0000   1.0000   1.0000   1.0000   1.0000   1.0000   1.0000   1.0000
     1.0000   1.0000   1.0000   1.0000   1.0000   1.0000   1.0000   1.0000
     1.0000   1.0000   1.0000   1.0000   1.0000   1.0000   1.0000   1.0000
     1.0000   1.0000   1.0000   1.0000   1.0000   1.0000   1.0000   1.0000
     1.0000   1.0000   1.0000   1.0000   1.0000   1.0000   1.0000   1.0000
     1.0000   1.0000   1.0000   1.0000   1.0000   1.0000   1.0000   1.0000
     1.0000   1.0000   1.0000   1.0000   1.0000   1.0000   1.0000   1.0000
     1.0000   1.0000   1.0000   1.0000   1.0000   1.0000   1.0000   1.0000
     1.0000   1.0000   1.0000   1.0000   1.0000   1.0000   1.0000   1.0000
     1.0000   1.0000   1.0000   1.0000   1.0000   1.0000   1.0000   1.0000
     1.0000   1.0000   1.0000   1.0000   1.0000   1.0000   1.0000   1.0000
     1.0000   1.0000   1.0000   1.0000   1.0000   1.0000   1.0000   0.0000
     0.0000   0.0000   0.0000   0.0000   0.0000   0.0000   0.0000   0.0000
     0.0000   0.0000   0.0000   0.0000   0.0000   0.0000   0.0000   0.0000
     0.0000   0.0000   0.0000   0.0000   0.0000   0.0000   0.0000   0.0000
     0.0000   0.0000   0.0000   0.0000   0.0000   0.0000

          k = 0.4286 0.4286 0.0000 ( 18358 PWs)   bands (ev):

   -89.9694 -89.9685 -89.9685 -89.9677 -89.9627 -89.9624 -89.9624 -89.9622
   -89.9618 -89.9616 -89.9615 -89.9614 -89.9609 -89.9608 -89.9606 -89.9604
   -53.4841 -53.4840 -53.4837 -53.4836 -53.4832 -53.4832 -53.4823 -53.4823
   -53.4657 -53.4606 -53.4584 -53.4584 -53.4557 -53.4557 -53.4519 -53.4507
   -53.4414 -53.4413 -53.4369 -53.4369 -53.4341 -53.4341 -53.4291 -53.4289
   -53.4185 -53.4182 -53.4181 -53.4179 -53.4179 -53.4177 -53.4157 -53.4155
   -53.4077 -53.4077 -53.4058 -53.4056 -53.4049 -53.4048 -53.4030 -53.4030
   -53.3998 -53.3998 -53.3997 -53.3987 -53.3904 -53.3892 -53.3892 -53.3886
    -3.6841  -3.6369  -3.5869  -3.5869  -3.5819  -3.5819  -3.5788  -3.5578
    -3.3460  -3.3459  -3.3307  -3.3307  -3.3240  -3.3240  -3.3166  -3.3166
    -3.2291  -3.2290  -3.1687  -3.1211  -3.1211  -3.0954  -3.0954  -3.0549
    -3.0549  -2.9977  -2.9906  -2.9905  -2.6170  -2.5331  -2.5110  -2.5110
    -2.5080  -2.5080  -2.5037  -2.4194  -2.3333  -2.3331  -2.2658  -2.2623
    -2.2623  -2.2514  -2.1864  -2.1864  -2.1532  -2.1532  -2.1447  -2.1009
    -2.0713  -2.0713  -2.0030  -2.0028  -2.0028  -2.0028  -1.9488  -1.8065
    -1.8065  -1.7695  -1.7694  -1.7466  -1.7317  -1.7317  -1.7237  -1.7237
    -1.5794  -1.5642  -1.5642  -1.5398  -1.5172  -1.5055  -1.5055  -1.4539
    -1.4430  -1.4430  -1.4221  -1.4220  -1.3451  -1.3451  -1.3296  -1.3295
    -1.2790  -1.2664  -1.2664  -1.2644   1.0075   1.3199   1.3199   1.6171
     2.3886   2.3886   2.8341   2.8341   3.4204   3.4204   3.8885   3.8885
     4.2241   4.6162   4.6162   4.9709   5.3447   5.3447   5.6640   5.6641
     6.3364   6.3365   6.5877   6.6284   6.6284   6.8856   6.9105   6.9105
     7.1763   7.1763   7.1892   7.2236   7.4709   8.1729

     occupation numbers 
     1.0000   1.0000   1.0000   1.0000   1.0000   1.0000   1.0000   1.0000
     1.0000   1.0000   1.0000   1.0000   1.0000   1.0000   1.0000   1.0000
     1.0000   1.0000   1.0000   1.0000   1.0000   1.0000   1.0000   1.0000
     1.0000   1.0000   1.0000   1.0000   1.0000   1.0000   1.0000   1.0000
     1.0000   1.0000   1.0000   1.0000   1.0000   1.0000   1.0000   1.0000
     1.0000   1.0000   1.0000   1.0000   1.0000   1.0000   1.0000   1.0000
     1.0000   1.0000   1.0000   1.0000   1.0000   1.0000   1.0000   1.0000
     1.0000   1.0000   1.0000   1.0000   1.0000   1.0000   1.0000   1.0000
     1.0000   1.0000   1.0000   1.0000   1.0000   1.0000   1.0000   1.0000
     1.0000   1.0000   1.0000   1.0000   1.0000   1.0000   1.0000   1.0000
     1.0000   1.0000   1.0000   1.0000   1.0000   1.0000   1.0000   1.0000
     1.0000   1.0000   1.0000   1.0000   1.0000   1.0000   1.0000   1.0000
     1.0000   1.0000   1.0000   1.0000   1.0000   1.0000   1.0000   1.0000
     1.0000   1.0000   1.0000   1.0000   1.0000   1.0000   1.0000   1.0000
     1.0000   1.0000   1.0000   1.0000   1.0000   1.0000   1.0000   1.0000
     1.0000   1.0000   1.0000   1.0000   1.0000   1.0000   1.0000   1.0000
     1.0000   1.0000   1.0000   1.0000   1.0000   1.0000   1.0000   1.0000
     1.0000   1.0000   1.0000   1.0000   1.0000   1.0000   1.0000   1.0000
     1.0000   1.0000   1.0000   1.0000   1.0000   1.0000   1.0000   0.5049
     0.0000   0.0000   0.0000   0.0000   0.0000   0.0000   0.0000   0.0000
     0.0000   0.0000   0.0000   0.0000   0.0000   0.0000   0.0000   0.0000
     0.0000   0.0000   0.0000   0.0000   0.0000   0.0000   0.0000   0.0000
     0.0000   0.0000   0.0000   0.0000   0.0000   0.0000

     the Fermi energy is     1.6174 ev

!    total energy              =   -4729.28964810 Ry
     estimated scf accuracy    <       0.00000098 Ry
     smearing contrib. (-TS)   =      -0.00014516 Ry
     internal energy E=F+TS    =   -4729.28950294 Ry

     The total energy is F=E-TS. E is the sum of the following terms:
     one-electron contribution =  -13383.02372570 Ry
     hartree contribution      =    6676.07071915 Ry
     xc contribution           =    -462.68188235 Ry
     ewald contribution        =    2440.34538596 Ry

     convergence has been achieved in   8 iterations

     negative rho (up, down):  4.446E-03 0.000E+00

     Forces acting on atoms (cartesian axes, Ry/au):

     atom    1 type  1   force =     0.00000000    0.00000000    0.00750749
     atom    2 type  1   force =     0.00000000   -0.00008986   -0.00751200
     atom    3 type  1   force =    -0.00008986    0.00000000   -0.00751200
     atom    4 type  1   force =    -0.00008960   -0.00008960    0.00751475
     atom    5 type  1   force =     0.00000000    0.00000000    0.00749732
     atom    6 type  1   force =     0.00000000    0.00008986   -0.00751200
     atom    7 type  1   force =    -0.00009625    0.00000000   -0.00749713
     atom    8 type  1   force =    -0.00008960    0.00008960    0.00751475
     atom    9 type  1   force =     0.00000000    0.00000000    0.00749732
     atom   10 type  1   force =     0.00000000   -0.00009625   -0.00749713
     atom   11 type  1   force =     0.00008986    0.00000000   -0.00751200
     atom   12 type  1   force =     0.00008960   -0.00008960    0.00751475
     atom   13 type  1   force =     0.00000000    0.00000000    0.00747537
     atom   14 type  1   force =     0.00000000    0.00009625   -0.00749713
     atom   15 type  1   force =     0.00009625    0.00000000   -0.00749713
     atom   16 type  1   force =     0.00008960    0.00008960    0.00751475
     The non-local contrib.  to forces
     atom    1 type  1   force =     0.00000000    0.00000000   -0.18908651
     atom    2 type  1   force =     0.00000000   -0.00002678    0.18903649
     atom    3 type  1   force =    -0.00002678    0.00000000    0.18903649
     atom    4 type  1   force =    -0.00002570   -0.00002570   -0.18907603
     atom    5 type  1   force =     0.00000000    0.00000000   -0.18907859
     atom    6 type  1   force =     0.00000000    0.00002678    0.18903649
     atom    7 type  1   force =    -0.00002527    0.00000000    0.18902512
     atom    8 type  1   force =    -0.00002570    0.00002570   -0.18907603
     atom    9 type  1   force =     0.00000000    0.00000000   -0.18907859
     atom   10 type  1   force =     0.00000000   -0.00002527    0.18902512
     atom   11 type  1   force =     0.00002678    0.00000000    0.18903649
     atom   12 type  1   force =     0.00002570   -0.00002570   -0.18907603
     atom   13 type  1   force =     0.00000000    0.00000000   -0.18906827
     atom   14 type  1   force =     0.00000000    0.00002527    0.18902512
     atom   15 type  1   force =     0.00002527    0.00000000    0.18902512
     atom   16 type  1   force =     0.00002570    0.00002570   -0.18907603
     The ionic contribution  to forces
     atom    1 type  1   force =    -0.00011503   -0.00011503  -97.86675895
     atom    2 type  1   force =    -0.00011503   -0.00004478   97.86680874
     atom    3 type  1   force =    -0.00004478   -0.00011503   97.86680874
     atom    4 type  1   force =    -0.00004478   -0.00004478  -97.86685853
     atom    5 type  1   force =    -0.00011503    0.00004478  -97.86680874
     atom    6 type  1   force =    -0.00011503    0.00011503   97.86675895
     atom    7 type  1   force =    -0.00004478    0.00004478   97.86685853
     atom    8 type  1   force =    -0.00004478    0.00011503  -97.86680874
     atom    9 type  1   force =     0.00004478   -0.00011503  -97.86680874
     atom   10 type  1   force =     0.00004478   -0.00004478   97.86685853
     atom   11 type  1   force =     0.00011503   -0.00011503   97.86675895
     atom   12 type  1   force =     0.00011503   -0.00004478  -97.86680874
     atom   13 type  1   force =     0.00004478    0.00004478  -97.86685853
     atom   14 type  1   force =     0.00004478    0.00011503   97.86680874
     atom   15 type  1   force =     0.00011503    0.00004478   97.86680874
     atom   16 type  1   force =     0.00011503    0.00011503  -97.86675895
     The local contribution  to forces
     atom    1 type  1   force =    -0.00000000   -0.00000000   98.06043902
     atom    2 type  1   force =    -0.00000000    0.00117827  -98.05990266
     atom    3 type  1   force =     0.00117827   -0.00000000  -98.05990266
     atom    4 type  1   force =     0.00118730    0.00118730   98.06062248
     atom    5 type  1   force =    -0.00000000    0.00077699   98.06060727
     atom    6 type  1   force =    -0.00000000    0.00037570  -98.05990266
     atom    7 type  1   force =     0.00119153    0.00077699  -98.06008207
     atom    8 type  1   force =     0.00118730    0.00036668   98.06062248
     atom    9 type  1   force =     0.00077699   -0.00000000   98.06060727
     atom   10 type  1   force =     0.00077699    0.00119153  -98.06008207
     atom   11 type  1   force =     0.00037570   -0.00000000  -98.05990266
     atom   12 type  1   force =     0.00036668    0.00118730   98.06062248
     atom   13 type  1   force =     0.00077699    0.00077699   98.06078493
     atom   14 type  1   force =     0.00077699    0.00036245  -98.06008207
     atom   15 type  1   force =     0.00036245    0.00077699  -98.06008207
     atom   16 type  1   force =     0.00036668    0.00036668   98.06062248
     The core correction contribution to forces
     atom    1 type  1   force =    -0.00000000   -0.00000000    0.00137925
     atom    2 type  1   force =    -0.00000000    0.00000040   -0.00137882
     atom    3 type  1   force =     0.00000040   -0.00000000   -0.00137882
     atom    4 type  1   force =     0.00000038    0.00000038    0.00137965
     atom    5 type  1   force =    -0.00000000    0.00000050    0.00137922
     atom    6 type  1   force =    -0.00000000    0.00000061   -0.00137882
     atom    7 type  1   force =     0.00000038    0.00000050   -0.00137872
     atom    8 type  1   force =     0.00000038    0.00000063    0.00137965
     atom    9 type  1   force =     0.00000050   -0.00000000    0.00137922
     atom   10 type  1   force =     0.00000050    0.00000038   -0.00137872
     atom   11 type  1   force =     0.00000061   -0.00000000   -0.00137882
     atom   12 type  1   force =     0.00000063    0.00000038    0.00137965
     atom   13 type  1   force =     0.00000050    0.00000050    0.00137908
     atom   14 type  1   force =     0.00000050    0.00000062   -0.00137872
     atom   15 type  1   force =     0.00000062    0.00000050   -0.00137872
     atom   16 type  1   force =     0.00000063    0.00000063    0.00137965
     The Hubbard contrib.    to forces
     atom    1 type  1   force =     0.00000000    0.00000000    0.00000000
     atom    2 type  1   force =     0.00000000    0.00000000    0.00000000
     atom    3 type  1   force =     0.00000000    0.00000000    0.00000000
     atom    4 type  1   force =     0.00000000    0.00000000    0.00000000
     atom    5 type  1   force =     0.00000000    0.00000000    0.00000000
     atom    6 type  1   force =     0.00000000    0.00000000    0.00000000
     atom    7 type  1   force =     0.00000000    0.00000000    0.00000000
     atom    8 type  1   force =     0.00000000    0.00000000    0.00000000
     atom    9 type  1   force =     0.00000000    0.00000000    0.00000000
     atom   10 type  1   force =     0.00000000    0.00000000    0.00000000
     atom   11 type  1   force =     0.00000000    0.00000000    0.00000000
     atom   12 type  1   force =     0.00000000    0.00000000    0.00000000
     atom   13 type  1   force =     0.00000000    0.00000000    0.00000000
     atom   14 type  1   force =     0.00000000    0.00000000    0.00000000
     atom   15 type  1   force =     0.00000000    0.00000000    0.00000000
     atom   16 type  1   force =     0.00000000    0.00000000    0.00000000
     The SCF correction term to forces
     atom    1 type  1   force =    -0.00000001   -0.00000001    0.00148138
     atom    2 type  1   force =    -0.00000001   -0.00038431   -0.00210415
     atom    3 type  1   force =    -0.00038431   -0.00000001   -0.00210415
     atom    4 type  1   force =    -0.00039412   -0.00039412    0.00134409
     atom    5 type  1   force =    -0.00000001    0.00000006    0.00134487
     atom    6 type  1   force =    -0.00000001    0.00038442   -0.00210415
     atom    7 type  1   force =    -0.00040544    0.00000006   -0.00194838
     atom    8 type  1   force =    -0.00039412    0.00039423    0.00134409
     atom    9 type  1   force =     0.00000006   -0.00000001    0.00134487
     atom   10 type  1   force =     0.00000006   -0.00040544   -0.00194838
     atom   11 type  1   force =     0.00038442   -0.00000001   -0.00210415
     atom   12 type  1   force =     0.00039423   -0.00039412    0.00134409
     atom   13 type  1   force =     0.00000006    0.00000006    0.00118486
     atom   14 type  1   force =     0.00000006    0.00040555   -0.00194839
     atom   15 type  1   force =     0.00040555    0.00000006   -0.00194839
     atom   16 type  1   force =     0.00039423    0.00039423    0.00134410

     Total force =     0.030021     Total SCF correction =     0.007059
     SCF correction compared to forces is large: reduce conv_thr to get better values


     Computing stress (Cartesian axis) and pressure


     negative rho (up, down):  4.446E-03 0.000E+00
          total   stress  (Ry/bohr**3)                   (kbar)     P=      -43.64
  -0.00033149   0.00000000   0.00000000          -48.76        0.00        0.00
   0.00000000  -0.00033149   0.00000000            0.00      -48.76        0.00
   0.00000000   0.00000000  -0.00022704            0.00        0.00      -33.40

     kinetic stress (kbar)  15873.07      0.00      0.00
                                0.00  15873.07      0.00
                                0.00      0.00  15953.42

     local   stress (kbar)-245519.67     -0.00     -0.00
                               -0.00-245519.67     -0.00
                               -0.00     -0.00 244730.05

     nonloc. stress (kbar)   1857.03      0.00      0.00
                                0.00   1857.03      0.00
                                0.00      0.00   1839.22

     hartree stress (kbar) 129187.95     -0.00     -0.00
                               -0.00 129187.95     -0.00
                               -0.00     -0.00-109949.76

     exc-cor stress (kbar)  -2862.22     -0.00     -0.00
                               -0.00  -2862.22     -0.00
                               -0.00     -0.00  -2868.00

     corecor stress (kbar)   -387.77      0.00     -0.00
                                0.00   -387.77     -0.00
                               -0.00     -0.00   -387.73

     ewald   stress (kbar) 101802.86      0.00     -0.00
                                0.00 101802.86     -0.00
                               -0.00     -0.00-149350.60

     hubbard stress (kbar)      0.00      0.00      0.00
                                0.00      0.00      0.00
                                0.00      0.00      0.00

     DFT-D   stress (kbar)      0.00      0.00      0.00
                                0.00      0.00      0.00
                                0.00      0.00      0.00

     XDM     stress (kbar)      0.00      0.00      0.00
                                0.00      0.00      0.00
                                0.00      0.00      0.00

     dft-nl  stress (kbar)      0.00      0.00      0.00
                                0.00      0.00      0.00
                                0.00      0.00      0.00

     TS-vdW  stress (kbar)      0.00      0.00      0.00
                                0.00      0.00      0.00
                                0.00      0.00      0.00



     BFGS Geometry Optimization
     Energy error            =      0.0E+00
     Gradient error          =      7.5E-03

     number of scf cycles    =   1
     number of bfgs steps    =   0

     energy   new            =   -4729.2896480993 Ry

     new trust radius        =       0.0075158204 bohr
     new conv_thr            =       0.0000010000 Ry


ATOMIC_POSITIONS (angstrom)
Ag            0.0000000000        0.0000000000        0.0039727924
Ag            0.0000000000        2.0802264474        2.0762988223
Ag            2.0802264474        0.0000000000        2.0762988223
Ag            2.0802265876        2.0802265876        0.0039766357
Ag            0.0000000000        4.1605480000        0.0039674128
Ag            0.0000000000        6.2408695526        2.0762988223
Ag            2.0802230689        4.1605480000        2.0763066888
Ag            2.0802265876        6.2408694124        0.0039766357
Ag            4.1605480000        0.0000000000        0.0039674128
Ag            4.1605480000        2.0802230689        2.0763066888
Ag            6.2408695526        0.0000000000        2.0762988223
Ag            6.2408694124        2.0802265876        0.0039766357
Ag            4.1605480000        4.1605480000        0.0039557949
Ag            4.1605480000        6.2408729311        2.0763066888
Ag            6.2408729311        4.1605480000        2.0763066888
Ag            6.2408694124        6.2408694124        0.0039766357



     Writing output data file ./surface.save/
     NEW-OLD atomic charge density approx. for the potential

     negative rho (up, down):  4.480E-03 0.000E+00

     total cpu time spent up to now is       53.0 secs

     Self-consistent Calculation

     iteration #  1     ecut=    30.00 Ry     beta= 0.30
     Davidson diagonalization with overlap
     ethr =  1.00E-06,  avg # of iterations =  4.0

     Threshold (ethr) on eigenvalues was too large:
     Diagonalizing with lowered threshold

     Davidson diagonalization with overlap
     ethr =  1.32E-08,  avg # of iterations =  2.3

     negative rho (up, down):  4.480E-03 0.000E+00

     total cpu time spent up to now is       64.9 secs

     total energy              =   -4729.29047223 Ry
     estimated scf accuracy    <       0.00004078 Ry

     iteration #  2     ecut=    30.00 Ry     beta= 0.30
     Davidson diagonalization with overlap
     ethr =  1.34E-08,  avg # of iterations =  2.0

     negative rho (up, down):  4.479E-03 0.000E+00

     total cpu time spent up to now is       69.2 secs

     total energy              =   -4729.29047592 Ry
     estimated scf accuracy    <       0.00000720 Ry

     iteration #  3     ecut=    30.00 Ry     beta= 0.30
     Davidson diagonalization with overlap
     ethr =  2.37E-09,  avg # of iterations =  3.1

     negative rho (up, down):  4.477E-03 0.000E+00

     total cpu time spent up to now is       73.6 secs

     total energy              =   -4729.29047628 Ry
     estimated scf accuracy    <       0.00000392 Ry

     iteration #  4     ecut=    30.00 Ry     beta= 0.30
     Davidson diagonalization with overlap
     ethr =  1.29E-09,  avg # of iterations =  1.3

     negative rho (up, down):  4.476E-03 0.000E+00

     total cpu time spent up to now is       77.4 secs

     total energy              =   -4729.29047672 Ry
     estimated scf accuracy    <       0.00000117 Ry

     iteration #  5     ecut=    30.00 Ry     beta= 0.30
     Davidson diagonalization with overlap
     ethr =  3.85E-10,  avg # of iterations =  1.4

     negative rho (up, down):  4.473E-03 0.000E+00

     total cpu time spent up to now is       81.2 secs

     End of self-consistent calculation

          k = 0.0000 0.0000 0.0000 ( 18383 PWs)   bands (ev):

   -89.9779 -89.9713 -89.9713 -89.9713 -89.9712 -89.9691 -89.9691 -89.9689
   -89.9688 -89.9688 -89.9667 -89.9667 -89.9667 -89.9666 -89.9647 -89.9644
   -53.4967 -53.4967 -53.4937 -53.4937 -53.4936 -53.4935 -53.4639 -53.4639
   -53.4639 -53.4639 -53.4631 -53.4631 -53.4631 -53.4631 -53.4588 -53.4588
   -53.4564 -53.4507 -53.4507 -53.4507 -53.4507 -53.4315 -53.4315 -53.4315
   -53.4315 -53.4291 -53.4291 -53.4224 -53.4224 -53.4224 -53.4224 -53.4131
   -53.4128 -53.4112 -53.4112 -53.4109 -53.4109 -53.4097 -53.4097 -53.4095
   -53.4095 -53.4043 -53.4043 -53.3965 -53.3965 -53.3964 -53.3964 -53.3935
    -4.2738  -3.7906  -3.7566  -3.6483  -3.6482  -3.5800  -3.5800  -3.5800
    -3.5800  -3.4522  -3.4522  -3.1503  -3.1503  -3.1502  -3.1502  -3.1490
    -3.1490  -3.1490  -3.1490  -3.0880  -3.0282  -3.0282  -3.0281  -3.0281
    -2.8116  -2.8116  -2.8115  -2.8115  -2.6950  -2.6950  -2.6950  -2.6950
    -2.4179  -2.4179  -2.4179  -2.4179  -2.3616  -2.3616  -2.3615  -2.3615
    -2.2879  -2.2879  -2.2865  -2.2865  -2.2865  -2.2865  -2.2695  -2.2695
    -2.2695  -2.2695  -2.0936  -1.8862  -1.8862  -1.8862  -1.8862  -1.8394
    -1.8394  -1.8394  -1.8394  -1.7997  -1.7997  -1.6782  -1.6782  -1.6781
    -1.6781  -1.6226  -1.5324  -1.5323  -1.4325  -1.4325  -1.4325  -1.4324
    -1.4322  -1.4322  -1.4322  -1.4321  -1.3304  -1.3304  -1.2624  -0.8908
    -0.8906  -0.6145  -0.6145  -0.6145  -0.6145   0.1774   1.8532   1.8533
     1.8533   1.8534   2.5177   2.5177   2.5178   2.5178   3.0413   4.7860
     4.7861   4.7863   4.7863   5.1068   5.1068   5.7387   5.9254   5.9254
     5.9255   5.9255   6.1431   8.0268   8.0268   8.0270   8.0270   8.1734
     8.1734   8.1737   8.1737   8.6678   8.6680   8.6681

     occupation numbers 
     1.0000   1.0000   1.0000   1.0000   1.0000   1.0000   1.0000   1.0000
     1.0000   1.0000   1.0000   1.0000   1.0000   1.0000   1.0000   1.0000
     1.0000   1.0000   1.0000   1.0000   1.0000   1.0000   1.0000   1.0000
     1.0000   1.0000   1.0000   1.0000   1.0000   1.0000   1.0000   1.0000
     1.0000   1.0000   1.0000   1.0000   1.0000   1.0000   1.0000   1.0000
     1.0000   1.0000   1.0000   1.0000   1.0000   1.0000   1.0000   1.0000
     1.0000   1.0000   1.0000   1.0000   1.0000   1.0000   1.0000   1.0000
     1.0000   1.0000   1.0000   1.0000   1.0000   1.0000   1.0000   1.0000
     1.0000   1.0000   1.0000   1.0000   1.0000   1.0000   1.0000   1.0000
     1.0000   1.0000   1.0000   1.0000   1.0000   1.0000   1.0000   1.0000
     1.0000   1.0000   1.0000   1.0000   1.0000   1.0000   1.0000   1.0000
     1.0000   1.0000   1.0000   1.0000   1.0000   1.0000   1.0000   1.0000
     1.0000   1.0000   1.0000   1.0000   1.0000   1.0000   1.0000   1.0000
     1.0000   1.0000   1.0000   1.0000   1.0000   1.0000   1.0000   1.0000
     1.0000   1.0000   1.0000   1.0000   1.0000   1.0000   1.0000   1.0000
     1.0000   1.0000   1.0000   1.0000   1.0000   1.0000   1.0000   1.0000
     1.0000   1.0000   1.0000   1.0000   1.0000   1.0000   1.0000   1.0000
     1.0000   1.0000   1.0000   1.0000   1.0000   1.0000   1.0000   1.0000
     1.0000   1.0000   1.0000   1.0000   1.0000   1.0000   0.0000   0.0000
     0.0000   0.0000   0.0000   0.0000   0.0000   0.0000   0.0000   0.0000
     0.0000   0.0000   0.0000   0.0000   0.0000   0.0000   0.0000   0.0000
     0.0000   0.0000   0.0000   0.0000   0.0000   0.0000   0.0000   0.0000
     0.0000   0.0000   0.0000   0.0000   0.0000   0.0000

          k = 0.0000 0.1429 0.0000 ( 18383 PWs)   bands (ev):

   -89.9777 -89.9727 -89.9712 -89.9712 -89.9698 -89.9695 -89.9695 -89.9689
   -89.9685 -89.9684 -89.9671 -89.9668 -89.9667 -89.9662 -89.9648 -89.9645
   -53.4961 -53.4961 -53.4938 -53.4938 -53.4918 -53.4918 -53.4706 -53.4693
   -53.4673 -53.4673 -53.4662 -53.4661 -53.4590 -53.4584 -53.4582 -53.4562
   -53.4555 -53.4541 -53.4475 -53.4463 -53.4463 -53.4376 -53.4303 -53.4299
   -53.4294 -53.4293 -53.4246 -53.4221 -53.4221 -53.4214 -53.4210 -53.4137
   -53.4137 -53.4134 -53.4129 -53.4129 -53.4128 -53.4105 -53.4105 -53.4070
   -53.4070 -53.4049 -53.4049 -53.3993 -53.3967 -53.3967 -53.3937 -53.3932
    -4.2267  -3.7704  -3.7279  -3.6266  -3.6257  -3.5667  -3.5667  -3.5613
    -3.5613  -3.4422  -3.4417  -3.2104  -3.1986  -3.1819  -3.1819  -3.1805
    -3.1763  -3.1763  -3.1680  -3.0828  -3.0691  -3.0646  -3.0158  -3.0158
    -2.8979  -2.8545  -2.8545  -2.7545  -2.7545  -2.6823  -2.6823  -2.5075
    -2.4869  -2.4726  -2.4427  -2.4427  -2.3847  -2.3847  -2.3748  -2.3748
    -2.3636  -2.3292  -2.3292  -2.2995  -2.2987  -2.2191  -2.2191  -2.2186
    -2.1400  -2.1027  -2.0969  -2.0245  -1.8732  -1.8220  -1.8220  -1.8193
    -1.8193  -1.8141  -1.8005  -1.7672  -1.7522  -1.7391  -1.7391  -1.6540
    -1.6177  -1.6177  -1.5444  -1.5377  -1.4766  -1.4766  -1.4352  -1.4352
    -1.4242  -1.4204  -1.4151  -1.4151  -1.3419  -1.3339  -1.2781  -1.0259
    -0.9527  -0.9226  -0.5752  -0.5751   0.0069   0.2283   1.1860   1.1860
     1.9112   2.5570   2.5571   2.5776   2.5776   3.1179   3.2175   4.2939
     4.2940   4.6542   5.2134   5.2604   5.3685   5.3686   5.7863   5.9619
     5.9620   6.1843   6.6512   7.4300   7.6331   7.8686   8.0269   8.0269
     8.0661   8.0663   8.1754   8.1755   8.2216   8.2219

     occupation numbers 
     1.0000   1.0000   1.0000   1.0000   1.0000   1.0000   1.0000   1.0000
     1.0000   1.0000   1.0000   1.0000   1.0000   1.0000   1.0000   1.0000
     1.0000   1.0000   1.0000   1.0000   1.0000   1.0000   1.0000   1.0000
     1.0000   1.0000   1.0000   1.0000   1.0000   1.0000   1.0000   1.0000
     1.0000   1.0000   1.0000   1.0000   1.0000   1.0000   1.0000   1.0000
     1.0000   1.0000   1.0000   1.0000   1.0000   1.0000   1.0000   1.0000
     1.0000   1.0000   1.0000   1.0000   1.0000   1.0000   1.0000   1.0000
     1.0000   1.0000   1.0000   1.0000   1.0000   1.0000   1.0000   1.0000
     1.0000   1.0000   1.0000   1.0000   1.0000   1.0000   1.0000   1.0000
     1.0000   1.0000   1.0000   1.0000   1.0000   1.0000   1.0000   1.0000
     1.0000   1.0000   1.0000   1.0000   1.0000   1.0000   1.0000   1.0000
     1.0000   1.0000   1.0000   1.0000   1.0000   1.0000   1.0000   1.0000
     1.0000   1.0000   1.0000   1.0000   1.0000   1.0000   1.0000   1.0000
     1.0000   1.0000   1.0000   1.0000   1.0000   1.0000   1.0000   1.0000
     1.0000   1.0000   1.0000   1.0000   1.0000   1.0000   1.0000   1.0000
     1.0000   1.0000   1.0000   1.0000   1.0000   1.0000   1.0000   1.0000
     1.0000   1.0000   1.0000   1.0000   1.0000   1.0000   1.0000   1.0000
     1.0000   1.0000   1.0000   1.0000   1.0000   1.0000   1.0000   1.0000
     1.0000   1.0000   1.0000   1.0000   1.0000   1.0000   1.0000   1.0000
     0.0000   0.0000   0.0000   0.0000   0.0000   0.0000   0.0000   0.0000
     0.0000   0.0000   0.0000   0.0000   0.0000   0.0000   0.0000   0.0000
     0.0000   0.0000   0.0000   0.0000   0.0000   0.0000   0.0000   0.0000
     0.0000   0.0000   0.0000   0.0000   0.0000   0.0000

          k = 0.0000 0.2857 0.0000 ( 18331 PWs)   bands (ev):

   -89.9772 -89.9741 -89.9710 -89.9710 -89.9699 -89.9699 -89.9687 -89.9684
   -89.9680 -89.9679 -89.9676 -89.9669 -89.9669 -89.9658 -89.9652 -89.9647
   -53.4935 -53.4923 -53.4911 -53.4911 -53.4882 -53.4882 -53.4774 -53.4760
   -53.4748 -53.4747 -53.4710 -53.4710 -53.4589 -53.4566 -53.4563 -53.4562
   -53.4560 -53.4485 -53.4442 -53.4429 -53.4375 -53.4375 -53.4326 -53.4325
   -53.4249 -53.4249 -53.4200 -53.4200 -53.4197 -53.4190 -53.4183 -53.4176
   -53.4176 -53.4155 -53.4155 -53.4142 -53.4113 -53.4113 -53.4111 -53.4070
   -53.4067 -53.4039 -53.4039 -53.4022 -53.3975 -53.3975 -53.3929 -53.3922
    -4.0888  -3.7104  -3.6442  -3.5620  -3.5592  -3.5211  -3.5211  -3.5105
    -3.5105  -3.4104  -3.4099  -3.3428  -3.3402  -3.2768  -3.2611  -3.2611
    -3.2469  -3.2468  -3.2273  -3.1950  -3.1889  -3.0867  -3.0139  -2.9857
    -2.9857  -2.8869  -2.8869  -2.6836  -2.6836  -2.6480  -2.6419  -2.6419
    -2.4989  -2.4764  -2.4764  -2.4287  -2.4286  -2.4225  -2.4225  -2.4129
    -2.4129  -2.3986  -2.3335  -2.3278  -2.2865  -2.1151  -2.1151  -2.1123
    -2.1076  -2.0292  -1.9526  -1.9511  -1.8497  -1.8351  -1.8076  -1.8076
    -1.8036  -1.7646  -1.7646  -1.7466  -1.6920  -1.6920  -1.6824  -1.6348
    -1.5828  -1.5588  -1.5588  -1.5537  -1.5397  -1.5397  -1.4457  -1.4457
    -1.4281  -1.4281  -1.4005  -1.3772  -1.3655  -1.3436  -1.3253  -1.2459
    -1.1251  -1.0127  -0.4475  -0.4474   0.3797   0.6108   0.6109   0.7942
     1.3950   2.6742   2.6742   3.1469   3.1469   3.3390   3.7212   4.0113
     4.1306   4.1306   4.6595   5.5190   5.9178   5.9179   5.9290   6.0623
     6.0624   6.3080   6.8674   6.8674   6.8825   6.9188   7.1764   7.2844
     7.4337   7.8943   7.8944   8.1729   8.1730   8.3471

     occupation numbers 
     1.0000   1.0000   1.0000   1.0000   1.0000   1.0000   1.0000   1.0000
     1.0000   1.0000   1.0000   1.0000   1.0000   1.0000   1.0000   1.0000
     1.0000   1.0000   1.0000   1.0000   1.0000   1.0000   1.0000   1.0000
     1.0000   1.0000   1.0000   1.0000   1.0000   1.0000   1.0000   1.0000
     1.0000   1.0000   1.0000   1.0000   1.0000   1.0000   1.0000   1.0000
     1.0000   1.0000   1.0000   1.0000   1.0000   1.0000   1.0000   1.0000
     1.0000   1.0000   1.0000   1.0000   1.0000   1.0000   1.0000   1.0000
     1.0000   1.0000   1.0000   1.0000   1.0000   1.0000   1.0000   1.0000
     1.0000   1.0000   1.0000   1.0000   1.0000   1.0000   1.0000   1.0000
     1.0000   1.0000   1.0000   1.0000   1.0000   1.0000   1.0000   1.0000
     1.0000   1.0000   1.0000   1.0000   1.0000   1.0000   1.0000   1.0000
     1.0000   1.0000   1.0000   1.0000   1.0000   1.0000   1.0000   1.0000
     1.0000   1.0000   1.0000   1.0000   1.0000   1.0000   1.0000   1.0000
     1.0000   1.0000   1.0000   1.0000   1.0000   1.0000   1.0000   1.0000
     1.0000   1.0000   1.0000   1.0000   1.0000   1.0000   1.0000   1.0000
     1.0000   1.0000   1.0000   1.0000   1.0000   1.0000   1.0000   1.0000
     1.0000   1.0000   1.0000   1.0000   1.0000   1.0000   1.0000   1.0000
     1.0000   1.0000   1.0000   1.0000   1.0000   1.0000   1.0000   1.0000
     1.0000   1.0000   1.0000   1.0000   1.0000   1.0000   1.0000   1.0000
     1.0000   0.0000   0.0000   0.0000   0.0000   0.0000   0.0000   0.0000
     0.0000   0.0000   0.0000   0.0000   0.0000   0.0000   0.0000   0.0000
     0.0000   0.0000   0.0000   0.0000   0.0000   0.0000   0.0000   0.0000
     0.0000   0.0000   0.0000   0.0000   0.0000   0.0000

          k = 0.0000 0.4286 0.0000 ( 18332 PWs)   bands (ev):

   -89.9764 -89.9753 -89.9708 -89.9708 -89.9703 -89.9703 -89.9685 -89.9681
   -89.9676 -89.9675 -89.9672 -89.9671 -89.9670 -89.9660 -89.9654 -89.9650
   -53.4893 -53.4890 -53.4870 -53.4870 -53.4839 -53.4829 -53.4828 -53.4828
   -53.4818 -53.4818 -53.4770 -53.4770 -53.4590 -53.4582 -53.4558 -53.4553
   -53.4533 -53.4485 -53.4420 -53.4398 -53.4365 -53.4355 -53.4299 -53.4299
   -53.4228 -53.4228 -53.4213 -53.4213 -53.4184 -53.4184 -53.4178 -53.4173
   -53.4173 -53.4162 -53.4143 -53.4142 -53.4138 -53.4138 -53.4100 -53.4098
   -53.4089 -53.4054 -53.4013 -53.4013 -53.3992 -53.3992 -53.3921 -53.3917
    -3.8717  -3.6133  -3.6031  -3.5142  -3.4850  -3.4684  -3.4563  -3.4483
    -3.4483  -3.4334  -3.4334  -3.3665  -3.3607  -3.3573  -3.3572  -3.3533
    -3.3502  -3.3403  -3.3402  -3.3286  -3.2968  -3.2441  -2.9495  -2.9495
    -2.9235  -2.9160  -2.9159  -2.8002  -2.6040  -2.6040  -2.5817  -2.5817
    -2.5003  -2.5003  -2.4907  -2.4907  -2.4894  -2.4894  -2.4706  -2.4706
    -2.4464  -2.3910  -2.3851  -2.3625  -2.1589  -2.1283  -2.0577  -2.0001
    -2.0001  -1.9583  -1.9016  -1.8943  -1.8943  -1.8901  -1.8583  -1.8176
    -1.7428  -1.6928  -1.6928  -1.6600  -1.6506  -1.6235  -1.6144  -1.6144
    -1.5822  -1.5675  -1.5675  -1.5125  -1.5081  -1.5081  -1.4768  -1.4768
    -1.4690  -1.4690  -1.4039  -1.3795  -1.3742  -1.3724  -1.3590  -1.3440
    -1.2765  -1.1419  -0.2123  -0.2123   0.1415   0.1415   0.6275   0.9672
     1.7028   2.6952   2.8642   2.8642   3.0970   3.0970   3.6840   4.1303
     4.7651   4.7651   4.8957   5.7566   5.7567   5.8612   5.9903   6.1662
     6.1872   6.1872   6.2113   6.2114   6.4968   6.5143   6.5892   6.8036
[...]
    -2.3726  -2.3598  -2.2388  -2.2388  -2.2018  -2.1968  -2.1968  -2.1598
    -2.1598  -2.1244  -2.0520  -2.0520  -2.0446  -2.0159  -2.0159  -1.7907
    -1.7907  -1.7596  -1.7503  -1.7503  -1.7197  -1.7196  -1.7075  -1.7075
    -1.5917  -1.5814  -1.5814  -1.5732  -1.5128  -1.5035  -1.5035  -1.4758
    -1.4758  -1.4549  -1.4495  -1.4495  -1.3619  -1.3619  -1.3537  -1.3537
    -1.2674  -1.2566  -1.2566  -1.2566   1.0590   1.3746   1.3746   1.6727
     2.3412   2.3412   2.7865   2.7865   3.3723   3.3723   3.8415   3.8415
     4.2868   4.6749   4.6749   5.0246   5.4115   5.4115   5.7186   5.7187
     6.4009   6.4009   6.5988   6.6783   6.6783   6.9059   6.9216   6.9216
     7.1458   7.1977   7.1977   7.2336   7.4948   8.1313

     occupation numbers 
     1.0000   1.0000   1.0000   1.0000   1.0000   1.0000   1.0000   1.0000
     1.0000   1.0000   1.0000   1.0000   1.0000   1.0000   1.0000   1.0000
     1.0000   1.0000   1.0000   1.0000   1.0000   1.0000   1.0000   1.0000
     1.0000   1.0000   1.0000   1.0000   1.0000   1.0000   1.0000   1.0000
     1.0000   1.0000   1.0000   1.0000   1.0000   1.0000   1.0000   1.0000
     1.0000   1.0000   1.0000   1.0000   1.0000   1.0000   1.0000   1.0000
     1.0000   1.0000   1.0000   1.0000   1.0000   1.0000   1.0000   1.0000
     1.0000   1.0000   1.0000   1.0000   1.0000   1.0000   1.0000   1.0000
     1.0000   1.0000   1.0000   1.0000   1.0000   1.0000   1.0000   1.0000
     1.0000   1.0000   1.0000   1.0000   1.0000   1.0000   1.0000   1.0000
     1.0000   1.0000   1.0000   1.0000   1.0000   1.0000   1.0000   1.0000
     1.0000   1.0000   1.0000   1.0000   1.0000   1.0000   1.0000   1.0000
     1.0000   1.0000   1.0000   1.0000   1.0000   1.0000   1.0000   1.0000
     1.0000   1.0000   1.0000   1.0000   1.0000   1.0000   1.0000   1.0000
     1.0000   1.0000   1.0000   1.0000   1.0000   1.0000   1.0000   1.0000
     1.0000   1.0000   1.0000   1.0000   1.0000   1.0000   1.0000   1.0000
     1.0000   1.0000   1.0000   1.0000   1.0000   1.0000   1.0000   1.0000
     1.0000   1.0000   1.0000   1.0000   1.0000   1.0000   1.0000   1.0000
     1.0000   1.0000   1.0000   1.0000   1.0000   1.0000   1.0000   0.2231
     0.0000   0.0000   0.0000   0.0000   0.0000   0.0000   0.0000   0.0000
     0.0000   0.0000   0.0000   0.0000   0.0000   0.0000   0.0000   0.0000
     0.0000   0.0000   0.0000   0.0000   0.0000   0.0000   0.0000   0.0000
     0.0000   0.0000   0.0000   0.0000   0.0000   0.0000

     the Fermi energy is     1.6507 ev

!    total energy              =   -4729.29348579 Ry
     estimated scf accuracy    <          3.1E-09 Ry
     smearing contrib. (-TS)   =      -0.00028204 Ry
     internal energy E=F+TS    =   -4729.29320375 Ry

     The total energy is F=E-TS. E is the sum of the following terms:
     one-electron contribution =  -13585.06738732 Ry
     hartree contribution      =    6776.61616633 Ry
     xc contribution           =    -462.77758027 Ry
     ewald contribution        =    2541.93559752 Ry

     convergence has been achieved in   3 iterations

     negative rho (up, down):  4.498E-03 0.000E+00

     Forces acting on atoms (cartesian axes, Ry/au):

     atom    1 type  1   force =     0.00000000    0.00000000   -0.00002011
     atom    2 type  1   force =     0.00000000    0.00002296    0.00001672
     atom    3 type  1   force =     0.00002296    0.00000000    0.00001672
     atom    4 type  1   force =     0.00002108    0.00002108   -0.00001313
     atom    5 type  1   force =     0.00000000    0.00000000   -0.00000221
     atom    6 type  1   force =     0.00000000   -0.00002296    0.00001672
     atom    7 type  1   force =     0.00002169    0.00000000   -0.00000055
     atom    8 type  1   force =     0.00002108   -0.00002108   -0.00001313
     atom    9 type  1   force =     0.00000000    0.00000000   -0.00000221
     atom   10 type  1   force =     0.00000000    0.00002169   -0.00000055
     atom   11 type  1   force =    -0.00002296    0.00000000    0.00001672
     atom   12 type  1   force =    -0.00002108    0.00002108   -0.00001313
     atom   13 type  1   force =     0.00000000    0.00000000    0.00001239
     atom   14 type  1   force =     0.00000000   -0.00002169   -0.00000055
     atom   15 type  1   force =    -0.00002169    0.00000000   -0.00000055
     atom   16 type  1   force =    -0.00002108   -0.00002108   -0.00001313
     The non-local contrib.  to forces
     atom    1 type  1   force =     0.00000000    0.00000000   -0.19265982
     atom    2 type  1   force =     0.00000000    0.00004063    0.19266506
     atom    3 type  1   force =     0.00004063    0.00000000    0.19266506
     atom    4 type  1   force =     0.00003793    0.00003793   -0.19267810
     atom    5 type  1   force =     0.00000000    0.00000000   -0.19268573
     atom    6 type  1   force =     0.00000000   -0.00004063    0.19266506
     atom    7 type  1   force =     0.00003650    0.00000000    0.19269631
     atom    8 type  1   force =     0.00003793   -0.00003793   -0.19267810
     atom    9 type  1   force =     0.00000000    0.00000000   -0.19268573
     atom   10 type  1   force =     0.00000000    0.00003650    0.19269631
     atom   11 type  1   force =    -0.00004063    0.00000000    0.19266506
     atom   12 type  1   force =    -0.00003793    0.00003793   -0.19267810
     atom   13 type  1   force =     0.00000000    0.00000000   -0.19271220
     atom   14 type  1   force =     0.00000000   -0.00003650    0.19269631
     atom   15 type  1   force =    -0.00003650    0.00000000    0.19269631
     atom   16 type  1   force =    -0.00003793   -0.00003793   -0.19267810
     The ionic contribution  to forces
     atom    1 type  1   force =    -0.00011815   -0.00011815  -98.46790671
     atom    2 type  1   force =    -0.00011815    0.00917352   98.46019991
     atom    3 type  1   force =     0.00917352   -0.00011815   98.46019991
     atom    4 type  1   force =     0.00889844    0.00889844  -98.45414006
     atom    5 type  1   force =    -0.00011814    0.00004527  -98.46010971
     atom    6 type  1   force =    -0.00011815   -0.00910064   98.46014771
     atom    7 type  1   force =     0.00855500    0.00004527   98.45409434
     atom    8 type  1   force =     0.00889843   -0.00882556  -98.45408785
     atom    9 type  1   force =     0.00004527   -0.00011814  -98.46010971
     atom   10 type  1   force =     0.00004527    0.00855500   98.45409434
     atom   11 type  1   force =    -0.00910064   -0.00011815   98.46014771
     atom   12 type  1   force =    -0.00882556    0.00889843  -98.45408785
     atom   13 type  1   force =     0.00004527    0.00004527  -98.45249063
     atom   14 type  1   force =     0.00004527   -0.00848213   98.45404213
     atom   15 type  1   force =    -0.00848213    0.00004527   98.45404213
     atom   16 type  1   force =    -0.00882555   -0.00882555  -98.45403565
     The local contribution  to forces
     atom    1 type  1   force =    -0.00000000   -0.00000000   98.65922153
     atom    2 type  1   force =    -0.00000000   -0.00840276  -98.65141624
     atom    3 type  1   force =    -0.00840276   -0.00000000  -98.65141624
     atom    4 type  1   force =    -0.00812983   -0.00812983   98.64542753
     atom    5 type  1   force =    -0.00000000    0.00077541   98.65146029
     atom    6 type  1   force =    -0.00000000    0.00995360  -98.65141623
     atom    7 type  1   force =    -0.00778201    0.00077541  -98.64534885
     atom    8 type  1   force =    -0.00812983    0.00968067   98.64542752
     atom    9 type  1   force =     0.00077541   -0.00000000   98.65146029
     atom   10 type  1   force =     0.00077541   -0.00778201  -98.64534885
     atom   11 type  1   force =     0.00995360   -0.00000000  -98.65141623
     atom   12 type  1   force =     0.00968067   -0.00812983   98.64542752
     atom   13 type  1   force =     0.00077542    0.00077542   98.64387386
     atom   14 type  1   force =     0.00077541    0.00933287  -98.64534884
     atom   15 type  1   force =     0.00933287    0.00077541  -98.64534884
     atom   16 type  1   force =     0.00968067    0.00968067   98.64542751
     The core correction contribution to forces
     atom    1 type  1   force =    -0.00000000   -0.00000000    0.00140974
     atom    2 type  1   force =    -0.00000000    0.00000035   -0.00140963
     atom    3 type  1   force =     0.00000035   -0.00000000   -0.00140963
     atom    4 type  1   force =     0.00000036    0.00000036    0.00140896
     atom    5 type  1   force =    -0.00000000    0.00000050    0.00140967
     atom    6 type  1   force =    -0.00000000    0.00000065   -0.00140963
     atom    7 type  1   force =     0.00000038    0.00000050   -0.00140959
     atom    8 type  1   force =     0.00000036    0.00000064    0.00140896
     atom    9 type  1   force =     0.00000050   -0.00000000    0.00140967
     atom   10 type  1   force =     0.00000050    0.00000038   -0.00140959
     atom   11 type  1   force =     0.00000065   -0.00000000   -0.00140963
     atom   12 type  1   force =     0.00000064    0.00000036    0.00140896
     atom   13 type  1   force =     0.00000050    0.00000050    0.00140962
     atom   14 type  1   force =     0.00000050    0.00000063   -0.00140959
     atom   15 type  1   force =     0.00000063    0.00000050   -0.00140959
     atom   16 type  1   force =     0.00000064    0.00000064    0.00140896
     The Hubbard contrib.    to forces
     atom    1 type  1   force =     0.00000000    0.00000000    0.00000000
     atom    2 type  1   force =     0.00000000    0.00000000    0.00000000
     atom    3 type  1   force =     0.00000000    0.00000000    0.00000000
     atom    4 type  1   force =     0.00000000    0.00000000    0.00000000
     atom    5 type  1   force =     0.00000000    0.00000000    0.00000000
     atom    6 type  1   force =     0.00000000    0.00000000    0.00000000
     atom    7 type  1   force =     0.00000000    0.00000000    0.00000000
     atom    8 type  1   force =     0.00000000    0.00000000    0.00000000
     atom    9 type  1   force =     0.00000000    0.00000000    0.00000000
     atom   10 type  1   force =     0.00000000    0.00000000    0.00000000
     atom   11 type  1   force =     0.00000000    0.00000000    0.00000000
     atom   12 type  1   force =     0.00000000    0.00000000    0.00000000
     atom   13 type  1   force =     0.00000000    0.00000000    0.00000000
     atom   14 type  1   force =     0.00000000    0.00000000    0.00000000
     atom   15 type  1   force =     0.00000000    0.00000000    0.00000000
     atom   16 type  1   force =     0.00000000    0.00000000    0.00000000
     The SCF correction term to forces
     atom    1 type  1   force =    -0.00000000   -0.00000000   -0.00009213
     atom    2 type  1   force =    -0.00000000    0.00002357   -0.00000357
     atom    3 type  1   force =     0.00002357   -0.00000000   -0.00000357
     atom    4 type  1   force =     0.00002654    0.00002654   -0.00009094
     atom    5 type  1   force =    -0.00000000   -0.00000000   -0.00008400
     atom    6 type  1   force =    -0.00000000   -0.00002357   -0.00000357
     atom    7 type  1   force =     0.00002419   -0.00000000   -0.00001393
     atom    8 type  1   force =     0.00002654   -0.00002654   -0.00009094
     atom    9 type  1   force =    -0.00000000   -0.00000000   -0.00008400
     atom   10 type  1   force =    -0.00000000    0.00002419   -0.00001393
     atom   11 type  1   force =    -0.00002357   -0.00000000   -0.00000357
     atom   12 type  1   force =    -0.00002654    0.00002654   -0.00009094
     atom   13 type  1   force =    -0.00000000   -0.00000000   -0.00007553
     atom   14 type  1   force =    -0.00000000   -0.00002419   -0.00001394
     atom   15 type  1   force =    -0.00002419   -0.00000000   -0.00001394
     atom   16 type  1   force =    -0.00002654   -0.00002654   -0.00009093

     Total force =     0.000100     Total SCF correction =     0.000269
     SCF correction compared to forces is large: reduce conv_thr to get better values


     Computing stress (Cartesian axis) and pressure


     negative rho (up, down):  4.498E-03 0.000E+00
          total   stress  (Ry/bohr**3)                   (kbar)     P=      -40.25
  -0.00031160   0.00000000   0.00000000          -45.84        0.00        0.00
   0.00000000  -0.00031160   0.00000000            0.00      -45.84        0.00
   0.00000000   0.00000000  -0.00019762            0.00        0.00      -29.07

     kinetic stress (kbar)  15875.85      0.00      0.00
                                0.00  15875.85      0.00
                                0.00      0.00  15957.06

     local   stress (kbar)-250483.14     -0.00      0.00
                               -0.00-250483.14      0.00
                                0.00      0.00 250162.46

     nonloc. stress (kbar)   1858.31      0.00      0.00
                                0.00   1858.31      0.00
                                0.00      0.00   1839.78

     hartree stress (kbar) 131607.38     -0.00     -0.00
                               -0.00 131607.38     -0.00
                               -0.00     -0.00-112553.24

     exc-cor stress (kbar)  -2862.77     -0.00      0.00
                               -0.00  -2862.77      0.00
                                0.00      0.00  -2868.51

     corecor stress (kbar)   -387.77      0.00      0.00
                                0.00   -387.77      0.00
                                0.00      0.00   -387.73

     ewald   stress (kbar) 104346.31     -0.00     -0.00
                               -0.00 104346.31     -0.00
                               -0.00     -0.00-152178.88

     hubbard stress (kbar)      0.00      0.00      0.00
                                0.00      0.00      0.00
                                0.00      0.00      0.00

     DFT-D   stress (kbar)      0.00      0.00      0.00
                                0.00      0.00      0.00
                                0.00      0.00      0.00

     XDM     stress (kbar)      0.00      0.00      0.00
                                0.00      0.00      0.00
                                0.00      0.00      0.00

     dft-nl  stress (kbar)      0.00      0.00      0.00
                                0.00      0.00      0.00
                                0.00      0.00      0.00

     TS-vdW  stress (kbar)      0.00      0.00      0.00
                                0.00      0.00      0.00
                                0.00      0.00      0.00


     Energy error            =      1.4E-08
     Gradient error          =      2.3E-05

     bfgs converged in   7 scf cycles and   6 bfgs steps
     (criteria: energy <  1.0E-04 Ry, force <  1.0E-03 Ry/Bohr)

     End of BFGS Geometry Optimization

     Final energy   =   -4729.2934857867 Ry

     File ./surface.bfgs deleted, as requested
Begin final coordinates

ATOMIC_POSITIONS (angstrom)
Ag            0.0000000000        0.0000000000        0.0341404736
Ag            0.0000000000        2.0801537255        2.0460570834
Ag            2.0801537255        0.0000000000        2.0460570834
Ag            2.0801636917        2.0801636917        0.0342728465
Ag            0.0000000000        4.1605480000        0.0341765994
Ag            0.0000000000        6.2409422745        2.0460570834
Ag            2.0801597433        4.1605480000        2.0460397591
Ag            2.0801636917        6.2409323083        0.0342728465
Ag            4.1605480000        0.0000000000        0.0341765994
Ag            4.1605480000        2.0801597433        2.0460397591
Ag            6.2409422745        0.0000000000        2.0460570834
Ag            6.2409323083        2.0801636917        0.0342728465
Ag            4.1605480000        4.1605480000        0.0342195716
Ag            4.1605480000        6.2409362567        2.0460397591
Ag            6.2409362567        4.1605480000        2.0460397591
Ag            6.2409323083        6.2409323083        0.0342728465
End final coordinates



     Writing output data file ./surface.save/

     init_run     :      2.13s CPU      2.21s WALL (       1 calls)
     electrons    :    226.29s CPU    232.30s WALL (       7 calls)
     update_pot   :      1.70s CPU      1.72s WALL (       6 calls)
     forces       :      7.91s CPU      8.18s WALL (       7 calls)
     stress       :     24.00s CPU     24.47s WALL (       7 calls)

     Called by init_run:
     wfcinit      :      1.39s CPU      1.41s WALL (       1 calls)
     wfcinit:atom :      0.00s CPU      0.00s WALL (      10 calls)
     wfcinit:wfcr :      1.31s CPU      1.33s WALL (      10 calls)
     potinit      :      0.12s CPU      0.12s WALL (       1 calls)
     hinit0       :      0.21s CPU      0.24s WALL (       1 calls)

     Called by electrons:
     c_bands      :    193.15s CPU    195.67s WALL (      47 calls)
     sum_band     :     27.16s CPU     29.00s WALL (      47 calls)
     v_of_rho     :      1.67s CPU      1.70s WALL (      48 calls)
     v_h          :      0.13s CPU      0.13s WALL (      48 calls)
     v_xc         :      2.00s CPU      2.03s WALL (      62 calls)
     newd         :      4.73s CPU      6.07s WALL (      48 calls)
     mix_rho      :      0.14s CPU      0.14s WALL (      47 calls)

     Called by c_bands:
     init_us_2    :      0.61s CPU      0.62s WALL (    1090 calls)
     cegterg      :    188.44s CPU    190.88s WALL (     470 calls)

     Called by sum_band:
     sum_band:wei :      0.03s CPU      0.03s WALL (      47 calls)
     sum_band:loo :     20.03s CPU     20.31s WALL (      47 calls)
     sum_band:buf :      0.14s CPU      0.15s WALL (     470 calls)
     sum_band:ini :      0.26s CPU      0.26s WALL (     470 calls)
     sum_band:cal :      6.09s CPU      6.12s WALL (     470 calls)
     sum_band:bec :      0.19s CPU      0.19s WALL (     470 calls)
     addusdens    :      2.80s CPU      4.35s WALL (      47 calls)
     addusd:skk   :      0.04s CPU      0.06s WALL (      47 calls)
     addusd:dgemm :      0.86s CPU      2.20s WALL (      47 calls)
     addusd:qvan2 :      1.55s CPU      1.56s WALL (      47 calls)

     Called by *egterg:
     cdiaghg      :     32.41s CPU     32.60s WALL (    1587 calls)
     cegterg:over :     19.44s CPU     19.56s WALL (    1237 calls)
     cegterg:upda :     11.47s CPU     11.61s WALL (    1237 calls)
     cegterg:last :     27.76s CPU     27.90s WALL (     959 calls)
     cdiaghg:chol :      1.48s CPU      1.50s WALL (    1587 calls)
     cdiaghg:inve :      1.64s CPU      1.65s WALL (    1587 calls)
     cdiaghg:para :      3.85s CPU      3.87s WALL (    3174 calls)
     h_psi        :     81.70s CPU     83.06s WALL (    1717 calls)
     s_psi        :      8.30s CPU      8.36s WALL (    1717 calls)
     g_psi        :      0.21s CPU      0.21s WALL (    1237 calls)

     Called by h_psi:
     h_psi:calbec :     16.13s CPU     16.22s WALL (    1717 calls)
     vloc_psi     :     56.95s CPU     58.02s WALL (    1717 calls)
     add_vuspsi   :      8.38s CPU      8.47s WALL (    1717 calls)

     General routines
     calbec       :     27.91s CPU     28.07s WALL (    2537 calls)
     fft          :      1.74s CPU      1.78s WALL (     797 calls)
     ffts         :      0.05s CPU      0.05s WALL (      95 calls)
     fftw         :     65.07s CPU     66.26s WALL (  497370 calls)
     interpolate  :      0.13s CPU      0.13s WALL (      48 calls)

     Parallel routines
     fft_scatt_xy :      5.45s CPU      5.56s WALL (  498262 calls)
     fft_scatt_yz :     32.70s CPU     33.31s WALL (  498262 calls)

     PWSCF        :   4m23.49s CPU   4m32.25s WALL


   This run was terminated on:   0:29:57   6Dec2021            

=------------------------------------------------------------------------------=
   JOB DONE.
=------------------------------------------------------------------------------=
