
     Program PWSCF v.6.7MaX starts on  6Dec2021 at  0:25:25 

     This program is part of the open-source Quantum ESPRESSO suite
     for quantum simulation of materials; please cite
         "P. Giannozzi et al., J. Phys.:Condens. Matter 21 395502 (2009);
         "P. Giannozzi et al., J. Phys.:Condens. Matter 29 465901 (2017);
          URL http://www.quantum-espresso.org", 
     in publications or presentations arising from this work. More details at
     http://www.quantum-espresso.org/quote

     Parallel version (MPI), running on    32 processors

     MPI processes distributed on     1 nodes
     R & G space division:  proc/nbgrp/npool/nimage =      32
     Reading input from ag_surface.100.k.qe.5_5_1.in

     Current dimensions of program PWSCF are:
     Max number of different atomic species (ntypx) = 10
     Max number of k-points (npk) =  40000
     Max angular momentum in pseudopotentials (lmaxx) =  3

     Subspace diagonalization in iterative solution of the eigenvalue problem:
     one sub-group per band group will be used
     scalapack distributed-memory algorithm (size of sub-group:  5*  5 procs)

     Found symmetry operation: I + (  0.2500  0.2500  0.0000)
     This is a supercell, fractional translations are disabled

     Parallelization info
     --------------------
     sticks:   dense  smooth     PW     G-vecs:    dense   smooth      PW
     Min         184      73     20                18142     4583     646
     Max         185      74     21                18149     4592     651
     Sum        5909    2361    641               580679   146829   20753



     bravais-lattice index     =            8
     lattice parameter (alat)  =      15.7246  a.u.
     unit-cell volume          =    6616.6507 (a.u.)^3
     number of atoms/cell      =           16
     number of atomic types    =            1
     number of electrons       =       304.00
     number of Kohn-Sham states=          182
     kinetic-energy cutoff     =      30.0000  Ry
     charge density cutoff     =     300.0000  Ry
     scf convergence threshold =      1.0E-06
     mixing beta               =       0.3000
     number of iterations used =            8  plain     mixing
     energy convergence thresh.=      1.0E-04
     force convergence thresh. =      1.0E-03
     Exchange-correlation=  SLA  PW   PBX  PBC
                           (   1   4   3   4   0   0   0)
     nstep                     =           50


     celldm(1)=  15.724600  celldm(2)=   1.000000  celldm(3)=   1.701764
     celldm(4)=   0.000000  celldm(5)=   0.000000  celldm(6)=   0.000000

     crystal axes: (cart. coord. in units of alat)
               a(1) = (   1.000000   0.000000   0.000000 )  
               a(2) = (   0.000000   1.000000   0.000000 )  
               a(3) = (   0.000000   0.000000   1.701764 )  

     reciprocal axes: (cart. coord. in units 2 pi/alat)
               b(1) = (  1.000000  0.000000  0.000000 )  
               b(2) = (  0.000000  1.000000  0.000000 )  
               b(3) = (  0.000000  0.000000  0.587625 )  


     PseudoPot. # 1 for Ag read from file:
     /expanse/lustre/projects/csd622/tpascal/nano110/qe/pseudo/ag_pbe_v1.4.uspp.F.UPF
     MD5 check sum: d66d668201baa78d5eb5b04ef7011058
     Pseudo is Ultrasoft + core correction, Zval = 19.0
     Generated by new atomic code, or converted to UPF format
     Using radial grid of  887 points,  6 beta functions with: 
                l(1) =   0
                l(2) =   0
                l(3) =   1
                l(4) =   1
                l(5) =   2
                l(6) =   2
     Q(r) pseudized with  6 coefficients,  rinner =    1.300   1.300   1.300
                                                       1.300   1.300

     atomic species   valence    mass     pseudopotential
        Ag            19.00   107.86820     Ag( 1.00)

      8 Sym. Ops. (no inversion) found


                                    s                        frac. trans.

      isym =  1     identity                                     

 cryst.   s( 1) = (     1          0          0      )
                  (     0          1          0      )
                  (     0          0          1      )

 cart.    s( 1) = (  1.0000000  0.0000000  0.0000000 )
                  (  0.0000000  1.0000000  0.0000000 )
                  (  0.0000000  0.0000000  1.0000000 )


      isym =  2     180 deg rotation - cart. axis [0,0,1]        

 cryst.   s( 2) = (    -1          0          0      )
                  (     0         -1          0      )
                  (     0          0          1      )

 cart.    s( 2) = ( -1.0000000  0.0000000  0.0000000 )
                  (  0.0000000 -1.0000000  0.0000000 )
                  (  0.0000000  0.0000000  1.0000000 )


      isym =  3      90 deg rotation - cart. axis [0,0,-1]       

 cryst.   s( 3) = (     0         -1          0      )
                  (     1          0          0      )
                  (     0          0          1      )

 cart.    s( 3) = (  0.0000000  1.0000000  0.0000000 )
                  ( -1.0000000  0.0000000  0.0000000 )
                  (  0.0000000  0.0000000  1.0000000 )


      isym =  4      90 deg rotation - cart. axis [0,0,1]        

 cryst.   s( 4) = (     0          1          0      )
                  (    -1          0          0      )
                  (     0          0          1      )

 cart.    s( 4) = (  0.0000000 -1.0000000  0.0000000 )
                  (  1.0000000  0.0000000  0.0000000 )
                  (  0.0000000  0.0000000  1.0000000 )


      isym =  5     inv. 180 deg rotation - cart. axis [0,1,0]   

 cryst.   s( 5) = (     1          0          0      )
                  (     0         -1          0      )
                  (     0          0          1      )

 cart.    s( 5) = (  1.0000000  0.0000000  0.0000000 )
                  (  0.0000000 -1.0000000  0.0000000 )
                  (  0.0000000  0.0000000  1.0000000 )


      isym =  6     inv. 180 deg rotation - cart. axis [1,0,0]   

 cryst.   s( 6) = (    -1          0          0      )
                  (     0          1          0      )
                  (     0          0          1      )

 cart.    s( 6) = ( -1.0000000  0.0000000  0.0000000 )
                  (  0.0000000  1.0000000  0.0000000 )
                  (  0.0000000  0.0000000  1.0000000 )


      isym =  7     inv. 180 deg rotation - cart. axis [1,1,0]   

 cryst.   s( 7) = (     0         -1          0      )
                  (    -1          0          0      )
                  (     0          0          1      )

 cart.    s( 7) = (  0.0000000 -1.0000000  0.0000000 )
                  ( -1.0000000  0.0000000  0.0000000 )
                  (  0.0000000  0.0000000  1.0000000 )


      isym =  8     inv. 180 deg rotation - cart. axis [1,-1,0]  

 cryst.   s( 8) = (     0          1          0      )
                  (     1          0          0      )
                  (     0          0          1      )

 cart.    s( 8) = (  0.0000000  1.0000000  0.0000000 )
                  (  1.0000000  0.0000000  0.0000000 )
                  (  0.0000000  0.0000000  1.0000000 )


     point group C_4v (4mm) 
     there are  5 classes
     the character table:

       E     2C4   C2    2s_v  2s_d 
A_1    1.00  1.00  1.00  1.00  1.00
A_2    1.00  1.00  1.00 -1.00 -1.00
B_1    1.00 -1.00  1.00  1.00 -1.00
B_2    1.00 -1.00  1.00 -1.00  1.00
E      2.00  0.00 -2.00  0.00  0.00

     the symmetry operations in each class and the name of the first element:

     E        1
          identity                                               
     2C4      3    4
           90 deg rotation - cart. axis [0,0,-1]                 
     C2       2
          180 deg rotation - cart. axis [0,0,1]                  
     2s_v     5    6
          inv. 180 deg rotation - cart. axis [0,1,0]             
     2s_d     7    8
          inv. 180 deg rotation - cart. axis [1,1,0]             

   Cartesian axes

     site n.     atom                  positions (alat units)
         1           Ag  tau(   1) = (   0.0000000   0.0000000   0.0000000  )
         2           Ag  tau(   2) = (   0.0000000   0.2499999   0.2499999  )
         3           Ag  tau(   3) = (   0.2499999   0.0000000   0.2499999  )
         4           Ag  tau(   4) = (   0.2499999   0.2499999   0.0000000  )
         5           Ag  tau(   5) = (   0.0000000   0.4999998   0.0000000  )
         6           Ag  tau(   6) = (   0.0000000   0.7499996   0.2499999  )
         7           Ag  tau(   7) = (   0.2499999   0.4999998   0.2499999  )
         8           Ag  tau(   8) = (   0.2499999   0.7499996   0.0000000  )
         9           Ag  tau(   9) = (   0.4999998   0.0000000   0.0000000  )
        10           Ag  tau(  10) = (   0.4999998   0.2499999   0.2499999  )
        11           Ag  tau(  11) = (   0.7499996   0.0000000   0.2499999  )
        12           Ag  tau(  12) = (   0.7499996   0.2499999   0.0000000  )
        13           Ag  tau(  13) = (   0.4999998   0.4999998   0.0000000  )
        14           Ag  tau(  14) = (   0.4999998   0.7499996   0.2499999  )
        15           Ag  tau(  15) = (   0.7499996   0.4999998   0.2499999  )
        16           Ag  tau(  16) = (   0.7499996   0.7499996   0.0000000  )

   Crystallographic axes

     site n.     atom                  positions (cryst. coord.)
         1           Ag  tau(   1) = (  0.0000000  0.0000000  0.0000000  )
         2           Ag  tau(   2) = (  0.0000000  0.2499999  0.1469063  )
         3           Ag  tau(   3) = (  0.2499999  0.0000000  0.1469063  )
         4           Ag  tau(   4) = (  0.2499999  0.2499999  0.0000000  )
         5           Ag  tau(   5) = (  0.0000000  0.4999998  0.0000000  )
         6           Ag  tau(   6) = (  0.0000000  0.7499996  0.1469063  )
         7           Ag  tau(   7) = (  0.2499999  0.4999998  0.1469063  )
         8           Ag  tau(   8) = (  0.2499999  0.7499996  0.0000000  )
         9           Ag  tau(   9) = (  0.4999998  0.0000000  0.0000000  )
        10           Ag  tau(  10) = (  0.4999998  0.2499999  0.1469063  )
        11           Ag  tau(  11) = (  0.7499996  0.0000000  0.1469063  )
        12           Ag  tau(  12) = (  0.7499996  0.2499999  0.0000000  )
        13           Ag  tau(  13) = (  0.4999998  0.4999998  0.0000000  )
        14           Ag  tau(  14) = (  0.4999998  0.7499996  0.1469063  )
        15           Ag  tau(  15) = (  0.7499996  0.4999998  0.1469063  )
        16           Ag  tau(  16) = (  0.7499996  0.7499996  0.0000000  )

     number of k points=     6  Gaussian smearing, width (Ry)=  0.0030
                       cart. coord. in units 2pi/alat
        k(    1) = (   0.0000000   0.0000000   0.0000000), wk =   0.0800000
        k(    2) = (   0.0000000   0.2000000   0.0000000), wk =   0.3200000
        k(    3) = (   0.0000000   0.4000000   0.0000000), wk =   0.3200000
        k(    4) = (   0.2000000   0.2000000   0.0000000), wk =   0.3200000
        k(    5) = (   0.2000000   0.4000000   0.0000000), wk =   0.6400000
        k(    6) = (   0.4000000   0.4000000   0.0000000), wk =   0.3200000

                       cryst. coord.
        k(    1) = (   0.0000000   0.0000000   0.0000000), wk =   0.0800000
        k(    2) = (   0.0000000   0.2000000   0.0000000), wk =   0.3200000
        k(    3) = (   0.0000000   0.4000000   0.0000000), wk =   0.3200000
        k(    4) = (   0.2000000   0.2000000   0.0000000), wk =   0.3200000
        k(    5) = (   0.2000000   0.4000000   0.0000000), wk =   0.6400000
        k(    6) = (   0.4000000   0.4000000   0.0000000), wk =   0.3200000

     Dense  grid:   580679 G-vectors     FFT dimensions: (  90,  90, 150)

     Smooth grid:   146829 G-vectors     FFT dimensions: (  60,  60,  96)

     Dynamical RAM for                 wfc:       1.59 MB

     Dynamical RAM for     wfc (w. buffer):      11.14 MB

     Dynamical RAM for           str. fact:       0.28 MB

     Dynamical RAM for           local pot:       0.00 MB

     Dynamical RAM for          nlocal pot:       2.52 MB

     Dynamical RAM for                qrad:       1.39 MB

     Dynamical RAM for          rho,v,vnew:       1.76 MB

     Dynamical RAM for               rhoin:       0.59 MB

     Dynamical RAM for            rho*nmix:       4.43 MB

     Dynamical RAM for           G-vectors:       1.07 MB

     Dynamical RAM for          h,s,v(r/c):       0.24 MB

     Dynamical RAM for          <psi|beta>:       0.80 MB

     Dynamical RAM for                 psi:       3.18 MB

     Dynamical RAM for                hpsi:       3.18 MB

     Dynamical RAM for                spsi:       3.18 MB

     Dynamical RAM for      wfcinit/wfcrot:       4.63 MB

     Dynamical RAM for           addusdens:      55.92 MB

     Dynamical RAM for          addusforce:      64.43 MB

     Dynamical RAM for         addusstress:      55.65 MB

     Estimated static dynamical RAM per process >      25.27 MB

     Estimated max dynamical RAM per process >      89.70 MB

     Estimated total dynamical RAM >       2.80 GB

     Initial potential from superposition of free atoms

     starting charge  295.99924, renormalised to  304.00000

     negative rho (up, down):  5.356E-03 0.000E+00
     Starting wfcs are  208 randomized atomic wfcs

     total cpu time spent up to now is        1.7 secs

     Self-consistent Calculation

     iteration #  1     ecut=    30.00 Ry     beta= 0.30
     Davidson diagonalization with overlap
     ethr =  1.00E-02,  avg # of iterations =  7.3

     negative rho (up, down):  1.230E-04 0.000E+00

     total cpu time spent up to now is        6.3 secs

     total energy              =   -4722.86411680 Ry
     estimated scf accuracy    <      27.71284417 Ry

     iteration #  2     ecut=    30.00 Ry     beta= 0.30
     Davidson diagonalization with overlap
     ethr =  9.12E-03,  avg # of iterations =  2.0

     negative rho (up, down):  3.702E-04 0.000E+00

     total cpu time spent up to now is        9.4 secs

     total energy              =   -4729.12022840 Ry
     estimated scf accuracy    <       1.47525945 Ry

     iteration #  3     ecut=    30.00 Ry     beta= 0.30
     Davidson diagonalization with overlap
     ethr =  4.85E-04,  avg # of iterations =  2.0

     negative rho (up, down):  9.466E-04 0.000E+00

     total cpu time spent up to now is       12.3 secs

     total energy              =   -4729.27424295 Ry
     estimated scf accuracy    <       0.08259927 Ry

     iteration #  4     ecut=    30.00 Ry     beta= 0.30
     Davidson diagonalization with overlap
     ethr =  2.72E-05,  avg # of iterations =  8.0

     negative rho (up, down):  4.093E-03 0.000E+00

     total cpu time spent up to now is       16.5 secs

     total energy              =   -4729.28331641 Ry
     estimated scf accuracy    <       0.01298243 Ry

     iteration #  5     ecut=    30.00 Ry     beta= 0.30
     Davidson diagonalization with overlap
     ethr =  4.27E-06,  avg # of iterations =  4.7

     negative rho (up, down):  3.929E-03 0.000E+00

     total cpu time spent up to now is       20.3 secs

     total energy              =   -4729.28408876 Ry
     estimated scf accuracy    <       0.00280964 Ry

     iteration #  6     ecut=    30.00 Ry     beta= 0.30
     Davidson diagonalization with overlap
     ethr =  9.24E-07,  avg # of iterations =  4.3

     negative rho (up, down):  4.086E-03 0.000E+00

     total cpu time spent up to now is       23.7 secs

     total energy              =   -4729.28456823 Ry
     estimated scf accuracy    <       0.00007574 Ry

     iteration #  7     ecut=    30.00 Ry     beta= 0.30
     Davidson diagonalization with overlap
     ethr =  2.49E-08,  avg # of iterations =  2.0

     negative rho (up, down):  4.351E-03 0.000E+00

     total cpu time spent up to now is       26.8 secs

     total energy              =   -4729.28458670 Ry
     estimated scf accuracy    <       0.00013917 Ry

     iteration #  8     ecut=    30.00 Ry     beta= 0.30
     Davidson diagonalization with overlap
     ethr =  2.49E-08,  avg # of iterations =  2.0

     negative rho (up, down):  4.410E-03 0.000E+00

     total cpu time spent up to now is       29.5 secs

     total energy              =   -4729.28458257 Ry
     estimated scf accuracy    <       0.00003759 Ry

     iteration #  9     ecut=    30.00 Ry     beta= 0.30
     Davidson diagonalization with overlap
     ethr =  1.24E-08,  avg # of iterations =  2.0

     negative rho (up, down):  4.469E-03 0.000E+00

     total cpu time spent up to now is       32.3 secs

     End of self-consistent calculation

          k = 0.0000 0.0000 0.0000 ( 18383 PWs)   bands (ev):

   -89.9306 -89.9240 -89.9240 -89.9240 -89.9240 -89.9218 -89.9218 -89.9218
   -89.9218 -89.9218 -89.9196 -89.9196 -89.9196 -89.9196 -89.9174 -89.9174
   -53.4472 -53.4472 -53.4448 -53.4448 -53.4448 -53.4448 -53.4159 -53.4159
   -53.4159 -53.4159 -53.4136 -53.4136 -53.4136 -53.4136 -53.4119 -53.4103
   -53.4103 -53.4022 -53.4022 -53.4022 -53.4022 -53.3829 -53.3829 -53.3829
   -53.3829 -53.3797 -53.3797 -53.3769 -53.3769 -53.3769 -53.3769 -53.3689
   -53.3689 -53.3654 -53.3653 -53.3653 -53.3653 -53.3621 -53.3621 -53.3620
   -53.3620 -53.3557 -53.3557 -53.3522 -53.3522 -53.3522 -53.3522 -53.3500
    -4.2132  -3.7331  -3.7030  -3.5919  -3.5918  -3.5221  -3.5220  -3.5220
    -3.5220  -3.3949  -3.3949  -3.0928  -3.0928  -3.0927  -3.0927  -3.0884
    -3.0884  -3.0884  -3.0884  -3.0434  -2.9740  -2.9740  -2.9740  -2.9740
    -2.7683  -2.7683  -2.7682  -2.7682  -2.6396  -2.6396  -2.6396  -2.6396
    -2.3686  -2.3686  -2.3686  -2.3686  -2.3046  -2.3046  -2.3046  -2.3046
    -2.2393  -2.2393  -2.2393  -2.2393  -2.2345  -2.2345  -2.2191  -2.2191
    -2.2191  -2.2191  -2.0592  -1.8453  -1.8453  -1.8453  -1.8452  -1.7982
    -1.7982  -1.7982  -1.7982  -1.7619  -1.7619  -1.6338  -1.6338  -1.6338
    -1.6338  -1.5674  -1.4926  -1.4926  -1.3941  -1.3941  -1.3941  -1.3941
    -1.3913  -1.3913  -1.3913  -1.3913  -1.2897  -1.2897  -1.2156  -0.8404
    -0.8403  -0.5721  -0.5721  -0.5720  -0.5720   0.1931   1.9034   1.9035
     1.9035   1.9035   2.5337   2.5337   2.5338   2.5338   3.0498   4.8047
     4.8048   4.8048   4.8049   5.1568   5.1568   5.7246   5.9319   5.9319
     5.9320   5.9320   6.1334   8.0143   8.0144   8.0146   8.0146   8.1643
     8.1643   8.1643   8.1644   8.6682   8.6685   8.6688

     occupation numbers 
     1.0000   1.0000   1.0000   1.0000   1.0000   1.0000   1.0000   1.0000
     1.0000   1.0000   1.0000   1.0000   1.0000   1.0000   1.0000   1.0000
     1.0000   1.0000   1.0000   1.0000   1.0000   1.0000   1.0000   1.0000
     1.0000   1.0000   1.0000   1.0000   1.0000   1.0000   1.0000   1.0000
     1.0000   1.0000   1.0000   1.0000   1.0000   1.0000   1.0000   1.0000
     1.0000   1.0000   1.0000   1.0000   1.0000   1.0000   1.0000   1.0000
     1.0000   1.0000   1.0000   1.0000   1.0000   1.0000   1.0000   1.0000
     1.0000   1.0000   1.0000   1.0000   1.0000   1.0000   1.0000   1.0000
     1.0000   1.0000   1.0000   1.0000   1.0000   1.0000   1.0000   1.0000
     1.0000   1.0000   1.0000   1.0000   1.0000   1.0000   1.0000   1.0000
     1.0000   1.0000   1.0000   1.0000   1.0000   1.0000   1.0000   1.0000
     1.0000   1.0000   1.0000   1.0000   1.0000   1.0000   1.0000   1.0000
     1.0000   1.0000   1.0000   1.0000   1.0000   1.0000   1.0000   1.0000
     1.0000   1.0000   1.0000   1.0000   1.0000   1.0000   1.0000   1.0000
     1.0000   1.0000   1.0000   1.0000   1.0000   1.0000   1.0000   1.0000
     1.0000   1.0000   1.0000   1.0000   1.0000   1.0000   1.0000   1.0000
     1.0000   1.0000   1.0000   1.0000   1.0000   1.0000   1.0000   1.0000
     1.0000   1.0000   1.0000   1.0000   1.0000   1.0000   1.0000   1.0000
     1.0000   1.0000   1.0000   1.0000   1.0000   1.0000   0.0000   0.0000
     0.0000   0.0000   0.0000   0.0000   0.0000   0.0000   0.0000   0.0000
     0.0000   0.0000   0.0000   0.0000   0.0000   0.0000   0.0000   0.0000
     0.0000   0.0000   0.0000   0.0000   0.0000   0.0000   0.0000   0.0000
     0.0000   0.0000   0.0000   0.0000   0.0000   0.0000

          k = 0.0000 0.2000 0.0000 ( 18345 PWs)   bands (ev):

   -89.9302 -89.9260 -89.9239 -89.9239 -89.9225 -89.9224 -89.9219 -89.9217
   -89.9211 -89.9211 -89.9202 -89.9197 -89.9197 -89.9189 -89.9177 -89.9175
   -53.4455 -53.4454 -53.4443 -53.4443 -53.4420 -53.4420 -53.4237 -53.4232
   -53.4210 -53.4210 -53.4196 -53.4195 -53.4112 -53.4106 -53.4104 -53.4089
   -53.4067 -53.4031 -53.3971 -53.3941 -53.3941 -53.3907 -53.3815 -53.3812
   -53.3801 -53.3801 -53.3759 -53.3749 -53.3749 -53.3738 -53.3734 -53.3695
   -53.3695 -53.3694 -53.3684 -53.3663 -53.3663 -53.3616 -53.3616 -53.3614
   -53.3614 -53.3570 -53.3568 -53.3562 -53.3528 -53.3528 -53.3494 -53.3487
    -4.1213  -3.6933  -3.6471  -3.5491  -3.5475  -3.4941  -3.4941  -3.4869
    -3.4869  -3.3749  -3.3741  -3.1969  -3.1720  -3.1676  -3.1499  -3.1499
    -3.1425  -3.1425  -3.1295  -3.0675  -3.0527  -3.0066  -2.9520  -2.9520
    -2.9198  -2.8236  -2.8235  -2.6852  -2.6852  -2.6138  -2.6138  -2.4986
    -2.4626  -2.4070  -2.4070  -2.3507  -2.3446  -2.3446  -2.3336  -2.3336
    -2.3321  -2.3153  -2.3153  -2.2571  -2.2553  -2.1312  -2.1312  -2.0673
    -2.0653  -2.0448  -2.0311  -1.9893  -1.8255  -1.7888  -1.7626  -1.7591
    -1.7591  -1.7311  -1.7311  -1.7186  -1.7186  -1.6889  -1.6642  -1.6293
    -1.5510  -1.5510  -1.5160  -1.5030  -1.4586  -1.4586  -1.3994  -1.3994
    -1.3755  -1.3755  -1.3743  -1.3717  -1.3098  -1.2963  -1.2462  -1.0930
    -0.9593  -0.9025  -0.4920  -0.4919   0.2928   0.3502   0.9942   0.9942
     1.7101   2.6109   2.6110   2.9000   2.9000   3.1985   3.5399   4.1801
     4.1802   4.3566   5.0195   5.3632   5.6204   5.6204   5.8180   6.0024
     6.0025   6.2142   6.9637   7.2022   7.4308   7.5113   7.6118   7.6119
     8.0303   8.0304   8.0900   8.0902   8.2509   8.2509

     occupation numbers 
     1.0000   1.0000   1.0000   1.0000   1.0000   1.0000   1.0000   1.0000
     1.0000   1.0000   1.0000   1.0000   1.0000   1.0000   1.0000   1.0000
     1.0000   1.0000   1.0000   1.0000   1.0000   1.0000   1.0000   1.0000
     1.0000   1.0000   1.0000   1.0000   1.0000   1.0000   1.0000   1.0000
     1.0000   1.0000   1.0000   1.0000   1.0000   1.0000   1.0000   1.0000
     1.0000   1.0000   1.0000   1.0000   1.0000   1.0000   1.0000   1.0000
     1.0000   1.0000   1.0000   1.0000   1.0000   1.0000   1.0000   1.0000
     1.0000   1.0000   1.0000   1.0000   1.0000   1.0000   1.0000   1.0000
     1.0000   1.0000   1.0000   1.0000   1.0000   1.0000   1.0000   1.0000
     1.0000   1.0000   1.0000   1.0000   1.0000   1.0000   1.0000   1.0000
     1.0000   1.0000   1.0000   1.0000   1.0000   1.0000   1.0000   1.0000
     1.0000   1.0000   1.0000   1.0000   1.0000   1.0000   1.0000   1.0000
     1.0000   1.0000   1.0000   1.0000   1.0000   1.0000   1.0000   1.0000
     1.0000   1.0000   1.0000   1.0000   1.0000   1.0000   1.0000   1.0000
     1.0000   1.0000   1.0000   1.0000   1.0000   1.0000   1.0000   1.0000
     1.0000   1.0000   1.0000   1.0000   1.0000   1.0000   1.0000   1.0000
     1.0000   1.0000   1.0000   1.0000   1.0000   1.0000   1.0000   1.0000
     1.0000   1.0000   1.0000   1.0000   1.0000   1.0000   1.0000   1.0000
     1.0000   1.0000   1.0000   1.0000   1.0000   1.0000   1.0000   1.0000
     0.5838   0.0000   0.0000   0.0000   0.0000   0.0000   0.0000   0.0000
     0.0000   0.0000   0.0000   0.0000   0.0000   0.0000   0.0000   0.0000
     0.0000   0.0000   0.0000   0.0000   0.0000   0.0000   0.0000   0.0000
     0.0000   0.0000   0.0000   0.0000   0.0000   0.0000

          k = 0.0000 0.4000 0.0000 ( 18346 PWs)   bands (ev):

   -89.9293 -89.9278 -89.9236 -89.9235 -89.9230 -89.9230 -89.9214 -89.9209
   -89.9205 -89.9205 -89.9201 -89.9200 -89.9200 -89.9187 -89.9183 -89.9178
   -53.4407 -53.4405 -53.4394 -53.4394 -53.4355 -53.4355 -53.4332 -53.4324
   -53.4317 -53.4317 -53.4274 -53.4274 -53.4110 -53.4103 -53.4100 -53.4095
   -53.4055 -53.3986 -53.3938 -53.3922 -53.3863 -53.3858 -53.3826 -53.3826
   -53.3767 -53.3767 -53.3738 -53.3733 -53.3733 -53.3729 -53.3728 -53.3717
   -53.3697 -53.3697 -53.3673 -53.3665 -53.3653 -53.3644 -53.3644 -53.3610
   -53.3605 -53.3605 -53.3575 -53.3575 -53.3547 -53.3547 -53.3483 -53.3478
    -3.8592  -3.5777  -3.4899  -3.4857  -3.4325  -3.4228  -3.4063  -3.4063
    -3.3981  -3.3931  -3.3931  -3.3142  -3.3082  -3.2920  -3.2788  -3.2788
    -3.2662  -3.2632  -3.2632  -3.2454  -3.2248  -3.1594  -2.9059  -2.9059
    -2.8992  -2.8623  -2.8623  -2.7262  -2.5771  -2.5771  -2.5385  -2.5384
    -2.4408  -2.4408  -2.4369  -2.4369  -2.4211  -2.4211  -2.4088  -2.4088
    -2.4065  -2.3427  -2.3207  -2.3030  -2.1299  -2.0876  -2.0359  -1.9738
    -1.9738  -1.9307  -1.8520  -1.8284  -1.8274  -1.8274  -1.8046  -1.7736
    -1.7194  -1.6685  -1.6665  -1.6665  -1.5933  -1.5925  -1.5578  -1.5578
    -1.5490  -1.5490  -1.5357  -1.4918  -1.4759  -1.4759  -1.4238  -1.4238
    -1.4235  -1.4235  -1.3443  -1.3397  -1.3338  -1.3155  -1.2913  -1.2684
    -1.2572  -1.0670  -0.2221  -0.2220   0.2754   0.2754   0.5866   1.0619
     1.5605   2.8385   2.8386   2.9482   3.1606   3.1607   3.6146   4.2379
     4.6365   4.6365   4.7285   5.9338   6.0190   6.0190   6.0798   6.0975
     6.1724   6.1725   6.1966   6.1967   6.4567   6.5606   6.7699   6.8618
     7.9478   7.9478   8.1011   8.2460   8.2462   8.5030

     occupation numbers 
     1.0000   1.0000   1.0000   1.0000   1.0000   1.0000   1.0000   1.0000
     1.0000   1.0000   1.0000   1.0000   1.0000   1.0000   1.0000   1.0000
     1.0000   1.0000   1.0000   1.0000   1.0000   1.0000   1.0000   1.0000
     1.0000   1.0000   1.0000   1.0000   1.0000   1.0000   1.0000   1.0000
     1.0000   1.0000   1.0000   1.0000   1.0000   1.0000   1.0000   1.0000
     1.0000   1.0000   1.0000   1.0000   1.0000   1.0000   1.0000   1.0000
     1.0000   1.0000   1.0000   1.0000   1.0000   1.0000   1.0000   1.0000
     1.0000   1.0000   1.0000   1.0000   1.0000   1.0000   1.0000   1.0000
     1.0000   1.0000   1.0000   1.0000   1.0000   1.0000   1.0000   1.0000
     1.0000   1.0000   1.0000   1.0000   1.0000   1.0000   1.0000   1.0000
     1.0000   1.0000   1.0000   1.0000   1.0000   1.0000   1.0000   1.0000
     1.0000   1.0000   1.0000   1.0000   1.0000   1.0000   1.0000   1.0000
     1.0000   1.0000   1.0000   1.0000   1.0000   1.0000   1.0000   1.0000
     1.0000   1.0000   1.0000   1.0000   1.0000   1.0000   1.0000   1.0000
     1.0000   1.0000   1.0000   1.0000   1.0000   1.0000   1.0000   1.0000
     1.0000   1.0000   1.0000   1.0000   1.0000   1.0000   1.0000   1.0000
     1.0000   1.0000   1.0000   1.0000   1.0000   1.0000   1.0000   1.0000
     1.0000   1.0000   1.0000   1.0000   1.0000   1.0000   1.0000   1.0000
     1.0000   1.0000   1.0000   1.0000   1.0000   1.0000   1.0000   1.0000
     1.0000   0.0000   0.0000   0.0000   0.0000   0.0000   0.0000   0.0000
     0.0000   0.0000   0.0000   0.0000   0.0000   0.0000   0.0000   0.0000
     0.0000   0.0000   0.0000   0.0000   0.0000   0.0000   0.0000   0.0000
     0.0000   0.0000   0.0000   0.0000   0.0000   0.0000

          k = 0.2000 0.2000 0.0000 ( 18375 PWs)   bands (ev):

   -89.9299 -89.9258 -89.9258 -89.9236 -89.9219 -89.9219 -89.9216 -89.9214
   -89.9213 -89.9208 -89.9203 -89.9203 -89.9191 -89.9191 -89.9178 -89.9178
   -53.4441 -53.4441 -53.4439 -53.4438 -53.4400 -53.4370 -53.4293 -53.4293
   -53.4268 -53.4268 -53.4137 -53.4137 -53.4126 -53.4126 -53.4113 -53.4086
   -53.4086 -53.4001 -53.4001 -53.3880 -53.3880 -53.3875 -53.3875 -53.3869
   -53.3787 -53.3776 -53.3776 -53.3760 -53.3760 -53.3737 -53.3691 -53.3691
   -53.3689 -53.3688 -53.3678 -53.3678 -53.3664 -53.3648 -53.3648 -53.3607
   -53.3594 -53.3584 -53.3569 -53.3569 -53.3558 -53.3498 -53.3498 -53.3494
    -4.0387  -3.6908  -3.5588  -3.5131  -3.5056  -3.5055  -3.4984  -3.4282
    -3.4282  -3.3562  -3.3562  -3.2804  -3.2804  -3.2372  -3.2372  -3.1890
    -3.1890  -3.1631  -3.1631  -3.0297  -3.0297  -2.9915  -2.9915  -2.9634
    -2.8907  -2.8907  -2.8871  -2.7253  -2.7253  -2.6243  -2.4581  -2.4581
    -2.4547  -2.4547  -2.4544  -2.4544  -2.3330  -2.3330  -2.3268  -2.2858
    -2.2858  -2.2829  -2.2407  -2.2248  -2.2218  -2.2218  -2.1037  -2.1037
    -2.0733  -1.9392  -1.9392  -1.9392  -1.9392  -1.9045  -1.7859  -1.7859
    -1.7471  -1.7471  -1.6698  -1.6485  -1.6485  -1.6404  -1.6404  -1.5684
    -1.5684  -1.5580  -1.5376  -1.5375  -1.4707  -1.4707  -1.4678  -1.3950
    -1.3950  -1.3907  -1.3605  -1.3605  -1.3067  -1.2710  -1.2538  -1.0738
    -1.0738  -1.0078  -1.0078   0.0265   0.3873   0.4850   0.4850   1.7823
     1.7823   2.1527   2.1528   2.8856   3.3406   3.6278   3.6278   4.4827
     4.5433   4.5433   4.9973   4.9974   5.1099   5.1099   5.9112   5.9548
     6.2950   6.6534   6.6534   6.9965   6.9965   7.2884   7.2884   7.5134
     7.5134   7.7148   7.7148   7.8027   8.7599   8.8159

     occupation numbers 
     1.0000   1.0000   1.0000   1.0000   1.0000   1.0000   1.0000   1.0000
     1.0000   1.0000   1.0000   1.0000   1.0000   1.0000   1.0000   1.0000
     1.0000   1.0000   1.0000   1.0000   1.0000   1.0000   1.0000   1.0000
     1.0000   1.0000   1.0000   1.0000   1.0000   1.0000   1.0000   1.0000
     1.0000   1.0000   1.0000   1.0000   1.0000   1.0000   1.0000   1.0000
     1.0000   1.0000   1.0000   1.0000   1.0000   1.0000   1.0000   1.0000
     1.0000   1.0000   1.0000   1.0000   1.0000   1.0000   1.0000   1.0000
     1.0000   1.0000   1.0000   1.0000   1.0000   1.0000   1.0000   1.0000
     1.0000   1.0000   1.0000   1.0000   1.0000   1.0000   1.0000   1.0000
     1.0000   1.0000   1.0000   1.0000   1.0000   1.0000   1.0000   1.0000
     1.0000   1.0000   1.0000   1.0000   1.0000   1.0000   1.0000   1.0000
     1.0000   1.0000   1.0000   1.0000   1.0000   1.0000   1.0000   1.0000
     1.0000   1.0000   1.0000   1.0000   1.0000   1.0000   1.0000   1.0000
     1.0000   1.0000   1.0000   1.0000   1.0000   1.0000   1.0000   1.0000
     1.0000   1.0000   1.0000   1.0000   1.0000   1.0000   1.0000   1.0000
     1.0000   1.0000   1.0000   1.0000   1.0000   1.0000   1.0000   1.0000
     1.0000   1.0000   1.0000   1.0000   1.0000   1.0000   1.0000   1.0000
     1.0000   1.0000   1.0000   1.0000   1.0000   1.0000   1.0000   1.0000
     1.0000   1.0000   1.0000   1.0000   1.0000   1.0000   1.0000   0.0111
     0.0111   0.0000   0.0000   0.0000   0.0000   0.0000   0.0000   0.0000
     0.0000   0.0000   0.0000   0.0000   0.0000   0.0000   0.0000   0.0000
     0.0000   0.0000   0.0000   0.0000   0.0000   0.0000   0.0000   0.0000
     0.0000   0.0000   0.0000   0.0000   0.0000   0.0000

          k = 0.2000 0.4000 0.0000 ( 18367 PWs)   bands (ev):

   -89.9290 -89.9276 -89.9253 -89.9245 -89.9218 -89.9216 -89.9213 -89.9209
   -89.9206 -89.9204 -89.9204 -89.9201 -89.9196 -89.9187 -89.9186 -89.9181
   -53.4416 -53.4413 -53.4408 -53.4401 -53.4370 -53.4362 -53.4345 -53.4338
   -53.4337 -53.4292 -53.4240 -53.4209 -53.4112 -53.4109 -53.4077 -53.4047
   -53.4040 -53.4037 -53.3963 -53.3948 -53.3885 -53.3828 -53.3797 -53.3792
   -53.3785 -53.3782 -53.3770 -53.3766 -53.3733 -53.3730 -53.3729 -53.3727
   -53.3709 -53.3708 -53.3694 -53.3662 -53.3662 -53.3621 -53.3616 -53.3614
   -53.3610 -53.3591 -53.3584 -53.3568 -53.3545 -53.3516 -53.3488 -53.3487
    -3.8092  -3.6165  -3.4996  -3.4792  -3.4685  -3.4554  -3.3958  -3.3956
    -3.3855  -3.3755  -3.3602  -3.3391  -3.3358  -3.3020  -3.2925  -3.2810
    -3.2468  -3.2455  -3.2424  -3.1926  -3.1551  -3.1336  -2.9397  -2.9320
    -2.9177  -2.8314  -2.8060  -2.8006  -2.6879  -2.6258  -2.5411  -2.4834
    -2.4831  -2.4665  -2.4650  -2.4093  -2.3894  -2.3844  -2.3107  -2.3011
    -2.2780  -2.2774  -2.2374  -2.2271  -2.1939  -2.1292  -2.0987  -2.0749
    -2.0238  -1.9616  -1.8989  -1.8459  -1.8364  -1.8162  -1.8138  -1.7983
    -1.6760  -1.6595  -1.6551  -1.6344  -1.6238  -1.5949  -1.5947  -1.5799
    -1.5499  -1.5448  -1.5368  -1.5364  -1.5124  -1.4850  -1.4432  -1.4287
    -1.4211  -1.4154  -1.3615  -1.3510  -1.3258  -1.2613  -1.2601  -1.2482
    -1.2434  -1.1272  -1.0011  -0.6891   0.6699   0.8640   1.1362   1.4349
     1.7205   2.0051   2.3876   3.1212   3.4430   3.7410   3.8642   4.3462
     4.4669   4.8307   5.0514   5.0987   5.3665   5.6472   5.7261   5.7873
     6.0621   6.1897   6.2135   6.5378   6.6508   6.8881   6.9434   7.0640
     7.5379   7.7617   7.8717   7.9519   8.1768   8.3080

     occupation numbers 
     1.0000   1.0000   1.0000   1.0000   1.0000   1.0000   1.0000   1.0000
     1.0000   1.0000   1.0000   1.0000   1.0000   1.0000   1.0000   1.0000
     1.0000   1.0000   1.0000   1.0000   1.0000   1.0000   1.0000   1.0000
     1.0000   1.0000   1.0000   1.0000   1.0000   1.0000   1.0000   1.0000
     1.0000   1.0000   1.0000   1.0000   1.0000   1.0000   1.0000   1.0000
     1.0000   1.0000   1.0000   1.0000   1.0000   1.0000   1.0000   1.0000
     1.0000   1.0000   1.0000   1.0000   1.0000   1.0000   1.0000   1.0000
     1.0000   1.0000   1.0000   1.0000   1.0000   1.0000   1.0000   1.0000
     1.0000   1.0000   1.0000   1.0000   1.0000   1.0000   1.0000   1.0000
     1.0000   1.0000   1.0000   1.0000   1.0000   1.0000   1.0000   1.0000
     1.0000   1.0000   1.0000   1.0000   1.0000   1.0000   1.0000   1.0000
     1.0000   1.0000   1.0000   1.0000   1.0000   1.0000   1.0000   1.0000
     1.0000   1.0000   1.0000   1.0000   1.0000   1.0000   1.0000   1.0000
     1.0000   1.0000   1.0000   1.0000   1.0000   1.0000   1.0000   1.0000
     1.0000   1.0000   1.0000   1.0000   1.0000   1.0000   1.0000   1.0000
     1.0000   1.0000   1.0000   1.0000   1.0000   1.0000   1.0000   1.0000
     1.0000   1.0000   1.0000   1.0000   1.0000   1.0000   1.0000   1.0000
     1.0000   1.0000   1.0000   1.0000   1.0000   1.0000   1.0000   1.0000
     1.0000   1.0000   1.0000   1.0000   1.0000   1.0000   1.0000   1.0000
     0.4410   0.0000   0.0000   0.0000   0.0000   0.0000   0.0000   0.0000
     0.0000   0.0000   0.0000   0.0000   0.0000   0.0000   0.0000   0.0000
     0.0000   0.0000   0.0000   0.0000   0.0000   0.0000   0.0000   0.0000
     0.0000   0.0000   0.0000   0.0000   0.0000   0.0000

          k = 0.4000 0.4000 0.0000 ( 18372 PWs)   bands (ev):

   -89.9282 -89.9269 -89.9269 -89.9259 -89.9211 -89.9209 -89.9208 -89.9207
   -89.9203 -89.9203 -89.9201 -89.9201 -89.9192 -89.9192 -89.9189 -89.9189
   -53.4410 -53.4410 -53.4403 -53.4403 -53.4399 -53.4399 -53.4383 -53.4383
   -53.4257 -53.4216 -53.4153 -53.4153 -53.4150 -53.4150 -53.4117 -53.4049
   -53.3999 -53.3999 -53.3946 -53.3946 -53.3901 -53.3901 -53.3834 -53.3833
   -53.3783 -53.3772 -53.3772 -53.3758 -53.3758 -53.3749 -53.3722 -53.3717
   -53.3701 -53.3701 -53.3671 -53.3671 -53.3659 -53.3659 -53.3631 -53.3631
   -53.3573 -53.3573 -53.3567 -53.3553 -53.3525 -53.3506 -53.3506 -53.3498
    -3.6791  -3.6062  -3.5266  -3.5255  -3.5255  -3.5143  -3.5143  -3.5008
    -3.3166  -3.3166  -3.2948  -3.2948  -3.2753  -3.2753  -3.2652  -3.2652
    -3.2243  -3.2243  -3.1821  -3.0762  -3.0762  -3.0398  -3.0398  -3.0115
    -3.0115  -2.9455  -2.8970  -2.8970  -2.6381  -2.4840  -2.4769  -2.4690
    -2.4690  -2.4663  -2.4663  -2.3506  -2.3505  -2.3258  -2.2290  -2.2271
    -2.2271  -2.2097  -2.1528  -2.1528  -2.1152  -2.1067  -2.1067  -2.0848
    -2.0564  -2.0564  -1.9582  -1.9582  -1.9067  -1.9066  -1.8734  -1.7855
    -1.7855  -1.7216  -1.7216  -1.6751  -1.6751  -1.6713  -1.6713  -1.6272
    -1.5340  -1.5098  -1.5098  -1.4809  -1.4750  -1.4750  -1.4371  -1.4371
    -1.4142  -1.3986  -1.3986  -1.3931  -1.2996  -1.2996  -1.2642  -1.2641
    -1.2446  -1.2241  -1.2230  -1.2230   0.9265   1.3689   1.3689   1.7814
     2.1528   2.1528   2.7695   2.7695   3.5890   3.5890   4.1024   4.2484
     4.2484   4.6585   4.6585   5.1284   5.1284   5.1409   5.5747   5.5748
     6.4651   6.5160   6.5160   6.7812   6.8581   6.8993   6.8993   6.9188
     6.9188   7.1883   7.1883   7.3520   7.5997   8.8661

     occupation numbers 
     1.0000   1.0000   1.0000   1.0000   1.0000   1.0000   1.0000   1.0000
     1.0000   1.0000   1.0000   1.0000   1.0000   1.0000   1.0000   1.0000
     1.0000   1.0000   1.0000   1.0000   1.0000   1.0000   1.0000   1.0000
     1.0000   1.0000   1.0000   1.0000   1.0000   1.0000   1.0000   1.0000
     1.0000   1.0000   1.0000   1.0000   1.0000   1.0000   1.0000   1.0000
     1.0000   1.0000   1.0000   1.0000   1.0000   1.0000   1.0000   1.0000
     1.0000   1.0000   1.0000   1.0000   1.0000   1.0000   1.0000   1.0000
     1.0000   1.0000   1.0000   1.0000   1.0000   1.0000   1.0000   1.0000
     1.0000   1.0000   1.0000   1.0000   1.0000   1.0000   1.0000   1.0000
     1.0000   1.0000   1.0000   1.0000   1.0000   1.0000   1.0000   1.0000
     1.0000   1.0000   1.0000   1.0000   1.0000   1.0000   1.0000   1.0000
     1.0000   1.0000   1.0000   1.0000   1.0000   1.0000   1.0000   1.0000
     1.0000   1.0000   1.0000   1.0000   1.0000   1.0000   1.0000   1.0000
     1.0000   1.0000   1.0000   1.0000   1.0000   1.0000   1.0000   1.0000
     1.0000   1.0000   1.0000   1.0000   1.0000   1.0000   1.0000   1.0000
     1.0000   1.0000   1.0000   1.0000   1.0000   1.0000   1.0000   1.0000
     1.0000   1.0000   1.0000   1.0000   1.0000   1.0000   1.0000   1.0000
     1.0000   1.0000   1.0000   1.0000   1.0000   1.0000   1.0000   1.0000
     1.0000   1.0000   1.0000   1.0000   1.0000   1.0000   1.0000   0.0120
     0.0000   0.0000   0.0000   0.0000   0.0000   0.0000   0.0000   0.0000
     0.0000   0.0000   0.0000   0.0000   0.0000   0.0000   0.0000   0.0000
     0.0000   0.0000   0.0000   0.0000   0.0000   0.0000   0.0000   0.0000
     0.0000   0.0000   0.0000   0.0000   0.0000   0.0000

     the Fermi energy is     1.7162 ev

!    total energy              =   -4729.28458845 Ry
     estimated scf accuracy    <       0.00000069 Ry
     smearing contrib. (-TS)   =      -0.00086113 Ry
     internal energy E=F+TS    =   -4729.28372732 Ry

     The total energy is F=E-TS. E is the sum of the following terms:
     one-electron contribution =  -13383.99047942 Ry
     hartree contribution      =    6677.04869818 Ry
     xc contribution           =    -462.68733204 Ry
     ewald contribution        =    2440.34538596 Ry

     convergence has been achieved in   9 iterations

     negative rho (up, down):  4.469E-03 0.000E+00

     Forces acting on atoms (cartesian axes, Ry/au):

     atom    1 type  1   force =     0.00000000    0.00000000    0.00948647
     atom    2 type  1   force =     0.00000000    0.00001763   -0.00949774
     atom    3 type  1   force =     0.00001763    0.00000000   -0.00949774
     atom    4 type  1   force =     0.00001572    0.00001572    0.00950789
     atom    5 type  1   force =     0.00000000    0.00000000    0.00949450
     atom    6 type  1   force =     0.00000000   -0.00001763   -0.00949774
     atom    7 type  1   force =     0.00001412    0.00000000   -0.00950197
     atom    8 type  1   force =     0.00001572   -0.00001572    0.00950789
     atom    9 type  1   force =     0.00000000    0.00000000    0.00949450
     atom   10 type  1   force =     0.00000000    0.00001412   -0.00950197
     atom   11 type  1   force =    -0.00001763    0.00000000   -0.00949774
     atom   12 type  1   force =    -0.00001572    0.00001572    0.00950789
     atom   13 type  1   force =     0.00000000    0.00000000    0.00949179
     atom   14 type  1   force =     0.00000000   -0.00001412   -0.00950197
     atom   15 type  1   force =    -0.00001412    0.00000000   -0.00950197
     atom   16 type  1   force =    -0.00001572   -0.00001572    0.00950789
     The non-local contrib.  to forces
     atom    1 type  1   force =     0.00000000    0.00000000   -0.20809824
     atom    2 type  1   force =     0.00000000    0.00000317    0.20812567
     atom    3 type  1   force =     0.00000317    0.00000000    0.20812567
     atom    4 type  1   force =     0.00000366    0.00000366   -0.20809781
     atom    5 type  1   force =     0.00000000    0.00000000   -0.20810139
     atom    6 type  1   force =     0.00000000   -0.00000317    0.20812567
     atom    7 type  1   force =     0.00000391    0.00000000    0.20812830
     atom    8 type  1   force =     0.00000366   -0.00000366   -0.20809781
     atom    9 type  1   force =     0.00000000    0.00000000   -0.20810139
     atom   10 type  1   force =     0.00000000    0.00000391    0.20812830
     atom   11 type  1   force =    -0.00000317    0.00000000    0.20812567
     atom   12 type  1   force =    -0.00000366    0.00000366   -0.20809781
     atom   13 type  1   force =     0.00000000    0.00000000   -0.20810013
     atom   14 type  1   force =     0.00000000   -0.00000391    0.20812830
     atom   15 type  1   force =    -0.00000391    0.00000000    0.20812830
     atom   16 type  1   force =    -0.00000366   -0.00000366   -0.20809781
     The ionic contribution  to forces
     atom    1 type  1   force =    -0.00011503   -0.00011503  -97.86675895
     atom    2 type  1   force =    -0.00011503   -0.00004478   97.86680874
     atom    3 type  1   force =    -0.00004478   -0.00011503   97.86680874
     atom    4 type  1   force =    -0.00004478   -0.00004478  -97.86685853
     atom    5 type  1   force =    -0.00011503    0.00004478  -97.86680874
     atom    6 type  1   force =    -0.00011503    0.00011503   97.86675895
     atom    7 type  1   force =    -0.00004478    0.00004478   97.86685853
     atom    8 type  1   force =    -0.00004478    0.00011503  -97.86680874
     atom    9 type  1   force =     0.00004478   -0.00011503  -97.86680874
     atom   10 type  1   force =     0.00004478   -0.00004478   97.86685853
     atom   11 type  1   force =     0.00011503   -0.00011503   97.86675895
     atom   12 type  1   force =     0.00011503   -0.00004478  -97.86680874
     atom   13 type  1   force =     0.00004478    0.00004478  -97.86685853
     atom   14 type  1   force =     0.00004478    0.00011503   97.86680874
     atom   15 type  1   force =     0.00011503    0.00004478   97.86680874
     atom   16 type  1   force =     0.00011503    0.00011503  -97.86675895
     The local contribution  to forces
     atom    1 type  1   force =     0.00000000   -0.00000000   98.08273951
     atom    2 type  1   force =    -0.00000000    0.00074633  -98.08304128
     atom    3 type  1   force =     0.00074633    0.00000000  -98.08304128
     atom    4 type  1   force =     0.00075832    0.00075832   98.08274810
     atom    5 type  1   force =     0.00000000    0.00077693   98.08273047
     atom    6 type  1   force =    -0.00000000    0.00080754  -98.08304128
     atom    7 type  1   force =     0.00077212    0.00077693  -98.08304382
     atom    8 type  1   force =     0.00075832    0.00079555   98.08274810
     atom    9 type  1   force =     0.00077693   -0.00000000   98.08273047
     atom   10 type  1   force =     0.00077693    0.00077212  -98.08304382
     atom   11 type  1   force =     0.00080754    0.00000000  -98.08304128
     atom   12 type  1   force =     0.00079555    0.00075832   98.08274810
     atom   13 type  1   force =     0.00077693    0.00077693   98.08275810
     atom   14 type  1   force =     0.00077693    0.00078175  -98.08304382
     atom   15 type  1   force =     0.00078175    0.00077693  -98.08304382
     atom   16 type  1   force =     0.00079555    0.00079555   98.08274810
     The core correction contribution to forces
     atom    1 type  1   force =    -0.00000000   -0.00000000    0.00150305
     atom    2 type  1   force =    -0.00000000    0.00000055   -0.00150218
     atom    3 type  1   force =     0.00000055   -0.00000000   -0.00150218
     atom    4 type  1   force =     0.00000055    0.00000055    0.00150354
     atom    5 type  1   force =    -0.00000000    0.00000050    0.00150308
     atom    6 type  1   force =    -0.00000000    0.00000046   -0.00150218
     atom    7 type  1   force =     0.00000054    0.00000050   -0.00150218
     atom    8 type  1   force =     0.00000055    0.00000046    0.00150354
     atom    9 type  1   force =     0.00000050   -0.00000000    0.00150308
     atom   10 type  1   force =     0.00000050    0.00000054   -0.00150218
     atom   11 type  1   force =     0.00000046   -0.00000000   -0.00150218
     atom   12 type  1   force =     0.00000046    0.00000055    0.00150354
     atom   13 type  1   force =     0.00000050    0.00000050    0.00150307
     atom   14 type  1   force =     0.00000050    0.00000046   -0.00150218
     atom   15 type  1   force =     0.00000046    0.00000050   -0.00150218
     atom   16 type  1   force =     0.00000046    0.00000046    0.00150354
     The Hubbard contrib.    to forces
     atom    1 type  1   force =     0.00000000    0.00000000    0.00000000
     atom    2 type  1   force =     0.00000000    0.00000000    0.00000000
     atom    3 type  1   force =     0.00000000    0.00000000    0.00000000
     atom    4 type  1   force =     0.00000000    0.00000000    0.00000000
     atom    5 type  1   force =     0.00000000    0.00000000    0.00000000
     atom    6 type  1   force =     0.00000000    0.00000000    0.00000000
     atom    7 type  1   force =     0.00000000    0.00000000    0.00000000
     atom    8 type  1   force =     0.00000000    0.00000000    0.00000000
     atom    9 type  1   force =     0.00000000    0.00000000    0.00000000
     atom   10 type  1   force =     0.00000000    0.00000000    0.00000000
     atom   11 type  1   force =     0.00000000    0.00000000    0.00000000
     atom   12 type  1   force =     0.00000000    0.00000000    0.00000000
     atom   13 type  1   force =     0.00000000    0.00000000    0.00000000
     atom   14 type  1   force =     0.00000000    0.00000000    0.00000000
     atom   15 type  1   force =     0.00000000    0.00000000    0.00000000
     atom   16 type  1   force =     0.00000000    0.00000000    0.00000000
     The SCF correction term to forces
     atom    1 type  1   force =     0.00000006    0.00000006    0.00013511
     atom    2 type  1   force =     0.00000006    0.00012466    0.00017021
     atom    3 type  1   force =     0.00012466    0.00000006    0.00017021
     atom    4 type  1   force =     0.00011029    0.00011029    0.00019684
     atom    5 type  1   force =     0.00000006   -0.00000026    0.00020508
     atom    6 type  1   force =     0.00000006   -0.00012517    0.00017024
     atom    7 type  1   force =     0.00009463   -0.00000026    0.00011609
     atom    8 type  1   force =     0.00011029   -0.00011080    0.00019681
     atom    9 type  1   force =    -0.00000026    0.00000006    0.00020508
     atom   10 type  1   force =    -0.00000026    0.00009463    0.00011609
     atom   11 type  1   force =    -0.00012517    0.00000006    0.00017024
     atom   12 type  1   force =    -0.00011080    0.00011029    0.00019681
     atom   13 type  1   force =    -0.00000026   -0.00000026    0.00022329
     atom   14 type  1   force =    -0.00000026   -0.00009514    0.00011612
     atom   15 type  1   force =    -0.00009514   -0.00000026    0.00011612
     atom   16 type  1   force =    -0.00011080   -0.00011080    0.00019679

     Total force =     0.037999     Total SCF correction =     0.000820


     Computing stress (Cartesian axis) and pressure


     negative rho (up, down):  4.469E-03 0.000E+00
          total   stress  (Ry/bohr**3)                   (kbar)     P=      -43.02
  -0.00032205   0.00000000   0.00000000          -47.38        0.00        0.00
   0.00000000  -0.00032205   0.00000000            0.00      -47.38        0.00
   0.00000000   0.00000000  -0.00023331            0.00        0.00      -34.32

     kinetic stress (kbar)  15876.54      0.00      0.00
                                0.00  15876.54      0.00
                                0.00      0.00  15947.19

     local   stress (kbar)-245546.74     -0.00      0.00
                               -0.00-245546.74      0.00
                                0.00      0.00 244762.11

     nonloc. stress (kbar)   1857.50      0.00      0.00
                                0.00   1857.50      0.00
                                0.00      0.00   1839.83

     hartree stress (kbar) 129212.45     -0.00     -0.00
                               -0.00 129212.45      0.00
                               -0.00      0.00-109977.02

     exc-cor stress (kbar)  -2862.22     -0.00     -0.00
                               -0.00  -2862.22     -0.00
                               -0.00     -0.00  -2868.10

     corecor stress (kbar)   -387.77      0.00     -0.00
                                0.00   -387.77     -0.00
                               -0.00     -0.00   -387.73

     ewald   stress (kbar) 101802.86     -0.00     -0.00
                               -0.00 101802.86     -0.00
                               -0.00     -0.00-149350.60

     hubbard stress (kbar)      0.00      0.00      0.00
                                0.00      0.00      0.00
                                0.00      0.00      0.00

     DFT-D   stress (kbar)      0.00      0.00      0.00
                                0.00      0.00      0.00
                                0.00      0.00      0.00

     XDM     stress (kbar)      0.00      0.00      0.00
                                0.00      0.00      0.00
                                0.00      0.00      0.00

     dft-nl  stress (kbar)      0.00      0.00      0.00
                                0.00      0.00      0.00
                                0.00      0.00      0.00

     TS-vdW  stress (kbar)      0.00      0.00      0.00
                                0.00      0.00      0.00
                                0.00      0.00      0.00



     BFGS Geometry Optimization
     Energy error            =      0.0E+00
     Gradient error          =      9.5E-03

     number of scf cycles    =   1
     number of bfgs steps    =   0

     energy   new            =   -4729.2845884498 Ry

     new trust radius        =       0.0095079136 bohr
     new conv_thr            =       0.0000010000 Ry


ATOMIC_POSITIONS (angstrom)
Ag            0.0000000000        0.0000000000        0.0050200249
Ag            0.0000000000        2.0802833291        2.0752480150
Ag            2.0802833291        0.0000000000        2.0752480150
Ag            2.0802823202        2.0802823202        0.0050313574
Ag            0.0000000000        4.1605480000        0.0050242708
Ag            0.0000000000        6.2408126709        2.0752480150
Ag            2.0802814697        4.1605480000        2.0752457759
Ag            2.0802823202        6.2408136798        0.0050313574
Ag            4.1605480000        0.0000000000        0.0050242708
Ag            4.1605480000        2.0802814697        2.0752457759
Ag            6.2408126709        0.0000000000        2.0752480150
Ag            6.2408136798        2.0802823202        0.0050313574
Ag            4.1605480000        4.1605480000        0.0050228401
Ag            4.1605480000        6.2408145303        2.0752457759
Ag            6.2408145303        4.1605480000        2.0752457759
Ag            6.2408136798        6.2408136798        0.0050313574



     Writing output data file ./surface.save/
     NEW-OLD atomic charge density approx. for the potential

     negative rho (up, down):  4.511E-03 0.000E+00

     total cpu time spent up to now is       36.6 secs

     Self-consistent Calculation

     iteration #  1     ecut=    30.00 Ry     beta= 0.30
     Davidson diagonalization with overlap
     ethr =  1.00E-06,  avg # of iterations =  4.2

     Threshold (ethr) on eigenvalues was too large:
     Diagonalizing with lowered threshold

     Davidson diagonalization with overlap
     ethr =  5.05E-08,  avg # of iterations =  1.8

     negative rho (up, down):  4.516E-03 0.000E+00

     total cpu time spent up to now is       44.0 secs

     total energy              =   -4729.28591617 Ry
     estimated scf accuracy    <       0.00015809 Ry

     iteration #  2     ecut=    30.00 Ry     beta= 0.30
     Davidson diagonalization with overlap
     ethr =  5.20E-08,  avg # of iterations =  3.8

     negative rho (up, down):  4.514E-03 0.000E+00

     total cpu time spent up to now is       47.0 secs

     total energy              =   -4729.28593915 Ry
     estimated scf accuracy    <       0.00001393 Ry

     iteration #  3     ecut=    30.00 Ry     beta= 0.30
     Davidson diagonalization with overlap
     ethr =  4.58E-09,  avg # of iterations =  1.0

     negative rho (up, down):  4.514E-03 0.000E+00

     total cpu time spent up to now is       49.3 secs

     total energy              =   -4729.28593929 Ry
     estimated scf accuracy    <       0.00000583 Ry

     iteration #  4     ecut=    30.00 Ry     beta= 0.30
     Davidson diagonalization with overlap
     ethr =  1.92E-09,  avg # of iterations =  1.3

     negative rho (up, down):  4.512E-03 0.000E+00

     total cpu time spent up to now is       51.7 secs

     total energy              =   -4729.28593949 Ry
     estimated scf accuracy    <       0.00000161 Ry

     iteration #  5     ecut=    30.00 Ry     beta= 0.30
     Davidson diagonalization with overlap
     ethr =  5.31E-10,  avg # of iterations =  2.0

     negative rho (up, down):  4.508E-03 0.000E+00

     total cpu time spent up to now is       54.4 secs

     End of self-consistent calculation

          k = 0.0000 0.0000 0.0000 ( 18383 PWs)   bands (ev):

   -89.9290 -89.9224 -89.9224 -89.9224 -89.9224 -89.9203 -89.9203 -89.9199
   -89.9198 -89.9198 -89.9178 -89.9178 -89.9178 -89.9178 -89.9159 -89.9154
   -53.4456 -53.4456 -53.4435 -53.4434 -53.4431 -53.4431 -53.4150 -53.4150
   -53.4150 -53.4150 -53.4120 -53.4120 -53.4119 -53.4119 -53.4117 -53.4075
   -53.4075 -53.4005 -53.4005 -53.4005 -53.4005 -53.3802 -53.3802 -53.3802
   -53.3802 -53.3780 -53.3780 -53.3754 -53.3754 -53.3754 -53.3754 -53.3684
   -53.3679 -53.3641 -53.3641 -53.3638 -53.3637 -53.3601 -53.3600 -53.3596
   -53.3596 -53.3530 -53.3530 -53.3506 -53.3506 -53.3505 -53.3505 -53.3486
    -4.2210  -3.7388  -3.7091  -3.5972  -3.5969  -3.5298  -3.5298  -3.5298
    -3.5298  -3.4047  -3.4047  -3.0992  -3.0992  -3.0992  -3.0992  -3.0970
    -3.0970  -3.0969  -3.0969  -3.0342  -2.9797  -2.9797  -2.9797  -2.9797
    -2.7622  -2.7622  -2.7620  -2.7620  -2.6467  -2.6467  -2.6466  -2.6466
    -2.3687  -2.3687  -2.3687  -2.3687  -2.3117  -2.3117  -2.3115  -2.3115
    -2.2412  -2.2412  -2.2351  -2.2351  -2.2351  -2.2351  -2.2241  -2.2241
    -2.2241  -2.2241  -2.0474  -1.8390  -1.8390  -1.8390  -1.8390  -1.7891
    -1.7891  -1.7891  -1.7891  -1.7531  -1.7531  -1.6332  -1.6332  -1.6330
    -1.6330  -1.5706  -1.4865  -1.4862  -1.3828  -1.3828  -1.3828  -1.3828
    -1.3824  -1.3823  -1.3822  -1.3822  -1.2826  -1.2826  -1.2088  -0.8380
    -0.8376  -0.5685  -0.5685  -0.5685  -0.5685   0.2025   1.9032   1.9033
     1.9034   1.9034   2.5492   2.5492   2.5492   2.5492   3.0625   4.8142
     4.8142   4.8145   4.8146   5.1532   5.1532   5.7208   5.9416   5.9416
     5.9416   5.9416   6.1338   8.0115   8.0115   8.0117   8.0117   8.1664
     8.1664   8.1669   8.1669   8.6784   8.6788   8.6790

     occupation numbers 
     1.0000   1.0000   1.0000   1.0000   1.0000   1.0000   1.0000   1.0000
     1.0000   1.0000   1.0000   1.0000   1.0000   1.0000   1.0000   1.0000
     1.0000   1.0000   1.0000   1.0000   1.0000   1.0000   1.0000   1.0000
     1.0000   1.0000   1.0000   1.0000   1.0000   1.0000   1.0000   1.0000
     1.0000   1.0000   1.0000   1.0000   1.0000   1.0000   1.0000   1.0000
     1.0000   1.0000   1.0000   1.0000   1.0000   1.0000   1.0000   1.0000
     1.0000   1.0000   1.0000   1.0000   1.0000   1.0000   1.0000   1.0000
     1.0000   1.0000   1.0000   1.0000   1.0000   1.0000   1.0000   1.0000
     1.0000   1.0000   1.0000   1.0000   1.0000   1.0000   1.0000   1.0000
     1.0000   1.0000   1.0000   1.0000   1.0000   1.0000   1.0000   1.0000
     1.0000   1.0000   1.0000   1.0000   1.0000   1.0000   1.0000   1.0000
     1.0000   1.0000   1.0000   1.0000   1.0000   1.0000   1.0000   1.0000
     1.0000   1.0000   1.0000   1.0000   1.0000   1.0000   1.0000   1.0000
     1.0000   1.0000   1.0000   1.0000   1.0000   1.0000   1.0000   1.0000
     1.0000   1.0000   1.0000   1.0000   1.0000   1.0000   1.0000   1.0000
     1.0000   1.0000   1.0000   1.0000   1.0000   1.0000   1.0000   1.0000
     1.0000   1.0000   1.0000   1.0000   1.0000   1.0000   1.0000   1.0000
     1.0000   1.0000   1.0000   1.0000   1.0000   1.0000   1.0000   1.0000
     1.0000   1.0000   1.0000   1.0000   1.0000   1.0000   0.0000   0.0000
     0.0000   0.0000   0.0000   0.0000   0.0000   0.0000   0.0000   0.0000
     0.0000   0.0000   0.0000   0.0000   0.0000   0.0000   0.0000   0.0000
     0.0000   0.0000   0.0000   0.0000   0.0000   0.0000   0.0000   0.0000
     0.0000   0.0000   0.0000   0.0000   0.0000   0.0000

          k = 0.0000 0.2000 0.0000 ( 18345 PWs)   bands (ev):

   -89.9287 -89.9244 -89.9222 -89.9222 -89.9208 -89.9208 -89.9203 -89.9198
   -89.9193 -89.9193 -89.9184 -89.9179 -89.9179 -89.9171 -89.9162 -89.9156
   -53.4439 -53.4438 -53.4428 -53.4428 -53.4405 -53.4405 -53.4221 -53.4219
   -53.4194 -53.4194 -53.4184 -53.4184 -53.4111 -53.4099 -53.4079 -53.4061
   -53.4048 -53.4014 -53.3955 -53.3924 -53.3923 -53.3880 -53.3797 -53.3795
   -53.3780 -53.3780 -53.3748 -53.3729 -53.3729 -53.3713 -53.3711 -53.3687
   -53.3681 -53.3681 -53.3675 -53.3643 -53.3643 -53.3599 -53.3598 -53.3593
   -53.3593 -53.3546 -53.3543 -53.3541 -53.3512 -53.3512 -53.3479 -53.3470
    -4.1292  -3.6991  -3.6532  -3.5542  -3.5527  -3.5025  -3.5024  -3.4941
    -3.4940  -3.3845  -3.3840  -3.2055  -3.1759  -3.1741  -3.1603  -3.1603
    -3.1472  -3.1472  -3.1404  -3.0732  -3.0586  -2.9975  -2.9569  -2.9569
    -2.9275  -2.8194  -2.8194  -2.6779  -2.6779  -2.6207  -2.6207  -2.4927
    -2.4654  -2.4087  -2.4087  -2.3564  -2.3514  -2.3514  -2.3402  -2.3402
    -2.3382  -2.3096  -2.3096  -2.2637  -2.2619  -2.1347  -2.1347  -2.0666
    -2.0536  -2.0457  -2.0234  -1.9865  -1.8179  -1.7801  -1.7544  -1.7503
    -1.7503  -1.7252  -1.7252  -1.7193  -1.7193  -1.6827  -1.6557  -1.6326
    -1.5487  -1.5487  -1.5104  -1.4967  -1.4498  -1.4498  -1.3892  -1.3892
    -1.3665  -1.3665  -1.3643  -1.3598  -1.3031  -1.2890  -1.2392  -1.0873
    -0.9571  -0.8991  -0.4889  -0.4889   0.3026   0.3516   0.9939   0.9940
     1.7240   2.6260   2.6260   2.9016   2.9016   3.2112   3.5564   4.1900
     4.1901   4.3548   5.0301   5.3601   5.6278   5.6278   5.8143   6.0118
     6.0118   6.2147   6.9726   7.1991   7.4325   7.5278   7.6135   7.6135
     8.0420   8.0420   8.0869   8.0871   8.2529   8.2533

     occupation numbers 
     1.0000   1.0000   1.0000   1.0000   1.0000   1.0000   1.0000   1.0000
     1.0000   1.0000   1.0000   1.0000   1.0000   1.0000   1.0000   1.0000
     1.0000   1.0000   1.0000   1.0000   1.0000   1.0000   1.0000   1.0000
     1.0000   1.0000   1.0000   1.0000   1.0000   1.0000   1.0000   1.0000
     1.0000   1.0000   1.0000   1.0000   1.0000   1.0000   1.0000   1.0000
     1.0000   1.0000   1.0000   1.0000   1.0000   1.0000   1.0000   1.0000
     1.0000   1.0000   1.0000   1.0000   1.0000   1.0000   1.0000   1.0000
     1.0000   1.0000   1.0000   1.0000   1.0000   1.0000   1.0000   1.0000
     1.0000   1.0000   1.0000   1.0000   1.0000   1.0000   1.0000   1.0000
     1.0000   1.0000   1.0000   1.0000   1.0000   1.0000   1.0000   1.0000
     1.0000   1.0000   1.0000   1.0000   1.0000   1.0000   1.0000   1.0000
     1.0000   1.0000   1.0000   1.0000   1.0000   1.0000   1.0000   1.0000
     1.0000   1.0000   1.0000   1.0000   1.0000   1.0000   1.0000   1.0000
     1.0000   1.0000   1.0000   1.0000   1.0000   1.0000   1.0000   1.0000
     1.0000   1.0000   1.0000   1.0000   1.0000   1.0000   1.0000   1.0000
     1.0000   1.0000   1.0000   1.0000   1.0000   1.0000   1.0000   1.0000
     1.0000   1.0000   1.0000   1.0000   1.0000   1.0000   1.0000   1.0000
     1.0000   1.0000   1.0000   1.0000   1.0000   1.0000   1.0000   1.0000
     1.0000   1.0000   1.0000   1.0000   1.0000   1.0000   1.0000   1.0000
     0.4656   0.0000   0.0000   0.0000   0.0000   0.0000   0.0000   0.0000
     0.0000   0.0000   0.0000   0.0000   0.0000   0.0000   0.0000   0.0000
     0.0000   0.0000   0.0000   0.0000   0.0000   0.0000   0.0000   0.0000
     0.0000   0.0000   0.0000   0.0000   0.0000   0.0000

          k = 0.0000 0.4000 0.0000 ( 18346 PWs)   bands (ev):

   -89.9277 -89.9262 -89.9219 -89.9219 -89.9214 -89.9214 -89.9195 -89.9191
   -89.9187 -89.9187 -89.9184 -89.9182 -89.9182 -89.9170 -89.9165 -89.9160
   -53.4391 -53.4390 -53.4378 -53.4378 -53.4341 -53.4341 -53.4316 -53.4309
   -53.4301 -53.4301 -53.4261 -53.4261 -53.4109 -53.4098 -53.4078 -53.4073
   -53.4027 -53.3958 -53.3921 -53.3906 -53.3845 -53.3842 -53.3808 -53.3808
   -53.3752 -53.3752 -53.3728 -53.3719 -53.3719 -53.3709 -53.3709 -53.3709
   -53.3674 -53.3673 -53.3649 -53.3642 -53.3638 -53.3620 -53.3620 -53.3592
   -53.3584 -53.3578 -53.3559 -53.3559 -53.3530 -53.3530 -53.3467 -53.3461
    -3.8672  -3.5838  -3.4962  -3.4938  -3.4371  -3.4281  -3.4153  -3.4153
    -3.4049  -3.3996  -3.3996  -3.3243  -3.3175  -3.2961  -3.2884  -3.2884
    -3.2724  -3.2689  -3.2689  -3.2509  -3.2352  -3.1680  -2.9084  -2.9084
    -2.8908  -2.8612  -2.8612  -2.7188  -2.5698  -2.5698  -2.5446  -2.5446
    -2.4404  -2.4404  -2.4340  -2.4340  -2.4270  -2.4270  -2.4144  -2.4144
    -2.4116  -2.3489  -2.3269  -2.3093  -2.1223  -2.0761  -2.0380  -1.9764
    -1.9764  -1.9249  -1.8439  -1.8292  -1.8292  -1.8244  -1.8086  -1.7670
    -1.7157  -1.6674  -1.6580  -1.6580  -1.5883  -1.5870  -1.5492  -1.5492
    -1.5420  -1.5420  -1.5294  -1.4841  -1.4714  -1.4714  -1.4160  -1.4160
    -1.4153  -1.4153  -1.3355  -1.3324  -1.3276  -1.3076  -1.2852  -1.2668
    -1.2475  -1.0611  -0.2204  -0.2203   0.2757   0.2758   0.5972   1.0740
     1.5608   2.8525   2.8526   2.9478   3.1719   3.1719   3.6269   4.2494
     4.6388   4.6388   4.7454   5.9315   6.0204   6.0204   6.0940   6.0968
     6.1806   6.1807   6.2027   6.2028   6.4575   6.5573   6.7687   6.8630
     7.9572   7.9573   8.1096   8.2431   8.2432   8.5052

     occupation numbers 
     1.0000   1.0000   1.0000   1.0000   1.0000   1.0000   1.0000   1.0000
     1.0000   1.0000   1.0000   1.0000   1.0000   1.0000   1.0000   1.0000
     1.0000   1.0000   1.0000   1.0000   1.0000   1.0000   1.0000   1.0000
     1.0000   1.0000   1.0000   1.0000   1.0000   1.0000   1.0000   1.0000
     1.0000   1.0000   1.0000   1.0000   1.0000   1.0000   1.0000   1.0000
     1.0000   1.0000   1.0000   1.0000   1.0000   1.0000   1.0000   1.0000
     1.0000   1.0000   1.0000   1.0000   1.0000   1.0000   1.0000   1.0000
     1.0000   1.0000   1.0000   1.0000   1.0000   1.0000   1.0000   1.0000
     1.0000   1.0000   1.0000   1.0000   1.0000   1.0000   1.0000   1.0000
     1.0000   1.0000   1.0000   1.0000   1.0000   1.0000   1.0000   1.0000
     1.0000   1.0000   1.0000   1.0000   1.0000   1.0000   1.0000   1.0000
     1.0000   1.0000   1.0000   1.0000   1.0000   1.0000   1.0000   1.0000
     1.0000   1.0000   1.0000   1.0000   1.0000   1.0000   1.0000   1.0000
     1.0000   1.0000   1.0000   1.0000   1.0000   1.0000   1.0000   1.0000
     1.0000   1.0000   1.0000   1.0000   1.0000   1.0000   1.0000   1.0000
     1.0000   1.0000   1.0000   1.0000   1.0000   1.0000   1.0000   1.0000
     1.0000   1.0000   1.0000   1.0000   1.0000   1.0000   1.0000   1.0000
     1.0000   1.0000   1.0000   1.0000   1.0000   1.0000   1.0000   1.0000
     1.0000   1.0000   1.0000   1.0000   1.0000   1.0000   1.0000   1.0000
     1.0000   0.0000   0.0000   0.0000   0.0000   0.0000   0.0000   0.0000
     0.0000   0.0000   0.0000   0.0000   0.0000   0.0000   0.0000   0.0000
     0.0000   0.0000   0.0000   0.0000   0.0000   0.0000   0.0000   0.0000
     0.0000   0.0000   0.0000   0.0000   0.0000   0.0000

          k = 0.2000 0.2000 0.0000 ( 18375 PWs)   bands (ev):

   -89.9284 -89.9242 -89.9242 -89.9219 -89.9203 -89.9203 -89.9199 -89.9197
   -89.9194 -89.9190 -89.9185 -89.9184 -89.9173 -89.9173 -89.9163 -89.9158
   -53.4426 -53.4425 -53.4425 -53.4421 -53.4385 -53.4356 -53.4276 -53.4276
   -53.4255 -53.4255 -53.4131 -53.4131 -53.4112 -53.4110 -53.4110 -53.4060
   -53.4059 -53.3982 -53.3982 -53.3862 -53.3862 -53.3853 -53.3848 -53.3848
   -53.3770 -53.3755 -53.3755 -53.3748 -53.3748 -53.3723 -53.3682 -53.3678
   -53.3674 -53.3670 -53.3653 -53.3653 -53.3643 -53.3632 -53.3628 -53.3580
   -53.3570 -53.3569 -53.3554 -53.3554 -53.3532 -53.3481 -53.3481 -53.3479
    -4.0466  -3.6967  -3.5651  -3.5216  -3.5108  -3.5105  -3.5049  -3.4361
    -3.4361  -3.3659  -3.3659  -3.2885  -3.2885  -3.2431  -3.2431  -3.1935
    -3.1935  -3.1733  -3.1733  -3.0355  -3.0355  -2.9974  -2.9974  -2.9547
    -2.8980  -2.8980  -2.8846  -2.7217  -2.7214  -2.6154  -2.4596  -2.4594
    -2.4571  -2.4571  -2.4510  -2.4510  -2.3386  -2.3386  -2.3328  -2.2924
    -2.2924  -2.2904  -2.2471  -2.2318  -2.2228  -2.2228  -2.1004  -2.1004
    -2.0615  -1.9351  -1.9351  -1.9329  -1.9329  -1.9065  -1.7779  -1.7779
    -1.7425  -1.7425  -1.6734  -1.6412  -1.6412  -1.6319  -1.6319  -1.5661
    -1.5659  -1.5546  -1.5321  -1.5317  -1.4630  -1.4628  -1.4590  -1.3864
    -1.3864  -1.3842  -1.3505  -1.3505  -1.2974  -1.2639  -1.2463  -1.0677
    -1.0677  -1.0048  -1.0043   0.0262   0.3973   0.4863   0.4863   1.7960
     1.7960   2.1528   2.1529   2.8957   3.3531   3.6437   3.6437   4.4852
     4.5419   4.5419   5.0075   5.0078   5.1203   5.1203   5.9075   5.9605
     6.2956   6.6544   6.6544   7.0049   7.0049   7.2852   7.2852   7.5152
     7.5152   7.7313   7.7314   7.8117   8.7619   8.8261

     occupation numbers 
     1.0000   1.0000   1.0000   1.0000   1.0000   1.0000   1.0000   1.0000
     1.0000   1.0000   1.0000   1.0000   1.0000   1.0000   1.0000   1.0000
     1.0000   1.0000   1.0000   1.0000   1.0000   1.0000   1.0000   1.0000
     1.0000   1.0000   1.0000   1.0000   1.0000   1.0000   1.0000   1.0000
     1.0000   1.0000   1.0000   1.0000   1.0000   1.0000   1.0000   1.0000
     1.0000   1.0000   1.0000   1.0000   1.0000   1.0000   1.0000   1.0000
     1.0000   1.0000   1.0000   1.0000   1.0000   1.0000   1.0000   1.0000
     1.0000   1.0000   1.0000   1.0000   1.0000   1.0000   1.0000   1.0000
     1.0000   1.0000   1.0000   1.0000   1.0000   1.0000   1.0000   1.0000
     1.0000   1.0000   1.0000   1.0000   1.0000   1.0000   1.0000   1.0000
     1.0000   1.0000   1.0000   1.0000   1.0000   1.0000   1.0000   1.0000
     1.0000   1.0000   1.0000   1.0000   1.0000   1.0000   1.0000   1.0000
     1.0000   1.0000   1.0000   1.0000   1.0000   1.0000   1.0000   1.0000
     1.0000   1.0000   1.0000   1.0000   1.0000   1.0000   1.0000   1.0000
     1.0000   1.0000   1.0000   1.0000   1.0000   1.0000   1.0000   1.0000
     1.0000   1.0000   1.0000   1.0000   1.0000   1.0000   1.0000   1.0000
     1.0000   1.0000   1.0000   1.0000   1.0000   1.0000   1.0000   1.0000
     1.0000   1.0000   1.0000   1.0000   1.0000   1.0000   1.0000   1.0000
     1.0000   1.0000   1.0000   1.0000   1.0000   1.0000   1.0000   0.0049
     0.0049   0.0000   0.0000   0.0000   0.0000   0.0000   0.0000   0.0000
     0.0000   0.0000   0.0000   0.0000   0.0000   0.0000   0.0000   0.0000
     0.0000   0.0000   0.0000   0.0000   0.0000   0.0000   0.0000   0.0000
     0.0000   0.0000   0.0000   0.0000   0.0000   0.0000

          k = 0.2000 0.4000 0.0000 ( 18367 PWs)   bands (ev):

   -89.9274 -89.9260 -89.9237 -89.9229 -89.9201 -89.9199 -89.9195 -89.9190
   -89.9188 -89.9186 -89.9186 -89.9184 -89.9178 -89.9171 -89.9168 -89.9163
   -53.4400 -53.4397 -53.4393 -53.4385 -53.4354 -53.4346 -53.4329 -53.4323
   -53.4322 -53.4279 -53.4224 -53.4199 -53.4109 -53.4108 -53.4053 -53.4025
   -53.4024 -53.4011 -53.3936 -53.3932 -53.3866 -53.3810 -53.3774 -53.3772
   -53.3768 -53.3764 -53.3751 -53.3751 -53.3721 -53.3720 -53.3708 -53.3702
   -53.3700 -53.3689 -53.3678 -53.3651 -53.3636 -53.3600 -53.3600 -53.3596
   -53.3584 -53.3569 -53.3566 -53.3542 -53.3529 -53.3500 -53.3472 -53.3471
    -3.8168  -3.6226  -3.5066  -3.4876  -3.4751  -3.4613  -3.4040  -3.4002
    -3.3907  -3.3819  -3.3658  -3.3476  -3.3428  -3.3119  -3.3018  -3.2857
    -3.2537  -3.2525  -3.2517  -3.1997  -3.1616  -3.1417  -2.9431  -2.9372
    -2.9178  -2.8235  -2.8083  -2.8073  -2.6923  -2.6190  -2.5316  -2.4846
    -2.4800  -2.4689  -2.4574  -2.4144  -2.3932  -2.3848  -2.3080  -2.3064
    -2.2850  -2.2834  -2.2444  -2.2333  -2.1999  -2.1222  -2.0873  -2.0784
    -2.0257  -1.9614  -1.8964  -1.8392  -1.8275  -1.8179  -1.8108  -1.7928
    -1.6711  -1.6534  -1.6502  -1.6260  -1.6205  -1.5881  -1.5863  -1.5712
    -1.5417  -1.5397  -1.5345  -1.5325  -1.5037  -1.4770  -1.4372  -1.4228
    -1.4148  -1.4109  -1.3547  -1.3436  -1.3174  -1.2585  -1.2518  -1.2402
    -1.2353  -1.1216  -0.9961  -0.6883   0.6807   0.8647   1.1483   1.4353
     1.7209   2.0183   2.3999   3.1209   3.4444   3.7531   3.8782   4.3576
     4.4787   4.8470   5.0509   5.1003   5.3761   5.6484   5.7340   5.7875
     6.0708   6.1862   6.2296   6.5386   6.6475   6.8952   6.9446   7.0652
     7.5346   7.7636   7.8685   7.9603   8.1788   8.3195

     occupation numbers 
     1.0000   1.0000   1.0000   1.0000   1.0000   1.0000   1.0000   1.0000
     1.0000   1.0000   1.0000   1.0000   1.0000   1.0000   1.0000   1.0000
     1.0000   1.0000   1.0000   1.0000   1.0000   1.0000   1.0000   1.0000
     1.0000   1.0000   1.0000   1.0000   1.0000   1.0000   1.0000   1.0000
     1.0000   1.0000   1.0000   1.0000   1.0000   1.0000   1.0000   1.0000
     1.0000   1.0000   1.0000   1.0000   1.0000   1.0000   1.0000   1.0000
     1.0000   1.0000   1.0000   1.0000   1.0000   1.0000   1.0000   1.0000
     1.0000   1.0000   1.0000   1.0000   1.0000   1.0000   1.0000   1.0000
     1.0000   1.0000   1.0000   1.0000   1.0000   1.0000   1.0000   1.0000
     1.0000   1.0000   1.0000   1.0000   1.0000   1.0000   1.0000   1.0000
     1.0000   1.0000   1.0000   1.0000   1.0000   1.0000   1.0000   1.0000
     1.0000   1.0000   1.0000   1.0000   1.0000   1.0000   1.0000   1.0000
     1.0000   1.0000   1.0000   1.0000   1.0000   1.0000   1.0000   1.0000
     1.0000   1.0000   1.0000   1.0000   1.0000   1.0000   1.0000   1.0000
     1.0000   1.0000   1.0000   1.0000   1.0000   1.0000   1.0000   1.0000
     1.0000   1.0000   1.0000   1.0000   1.0000   1.0000   1.0000   1.0000
     1.0000   1.0000   1.0000   1.0000   1.0000   1.0000   1.0000   1.0000
     1.0000   1.0000   1.0000   1.0000   1.0000   1.0000   1.0000   1.0000
     1.0000   1.0000   1.0000   1.0000   1.0000   1.0000   1.0000   1.0000
     0.5092   0.0000   0.0000   0.0000   0.0000   0.0000   0.0000   0.0000
     0.0000   0.0000   0.0000   0.0000   0.0000   0.0000   0.0000   0.0000
     0.0000   0.0000   0.0000   0.0000   0.0000   0.0000   0.0000   0.0000
     0.0000   0.0000   0.0000   0.0000   0.0000   0.0000

          k = 0.4000 0.4000 0.0000 ( 18372 PWs)   bands (ev):

   -89.9266 -89.9253 -89.9253 -89.9242 -89.9193 -89.9190 -89.9190 -89.9189
   -89.9188 -89.9185 -89.9185 -89.9183 -89.9175 -89.9174 -89.9174 -89.9169
   -53.4396 -53.4392 -53.4388 -53.4385 -53.4382 -53.4382 -53.4367 -53.4367
   -53.4241 -53.4206 -53.4147 -53.4147 -53.4135 -53.4135 -53.4115 -53.4034
   -53.3976 -53.3973 -53.3925 -53.3925 -53.3876 -53.3876 -53.3814 -53.3809
   -53.3765 -53.3750 -53.3750 -53.3740 -53.3740 -53.3730 -53.3698 -53.3697
   -53.3690 -53.3690 -53.3662 -53.3658 -53.3647 -53.3643 -53.3618 -53.3618
   -53.3547 -53.3547 -53.3542 -53.3527 -53.3509 -53.3489 -53.3489 -53.3482
    -3.6858  -3.6124  -3.5341  -3.5324  -3.5324  -3.5202  -3.5202  -3.5063
    -3.3227  -3.3225  -3.3024  -3.3022  -3.2815  -3.2815  -3.2733  -3.2733
    -3.2325  -3.2323  -3.1886  -3.0826  -3.0826  -3.0468  -3.0468  -3.0172
    -3.0172  -2.9484  -2.9031  -2.9029  -2.6312  -2.4879  -2.4719  -2.4719
    -2.4668  -2.4577  -2.4577  -2.3487  -2.3483  -2.3288  -2.2370  -2.2349
    -2.2349  -2.2173  -2.1525  -2.1525  -2.1048  -2.1048  -2.1045  -2.0906
    -2.0598  -2.0598  -1.9533  -1.9533  -1.9055  -1.9052  -1.8782  -1.7762
    -1.7762  -1.7120  -1.7118  -1.6666  -1.6664  -1.6619  -1.6619  -1.6206
    -1.5287  -1.5054  -1.5054  -1.4722  -1.4667  -1.4667  -1.4343  -1.4343
    -1.4140  -1.3950  -1.3948  -1.3853  -1.2936  -1.2936  -1.2597  -1.2594
    -1.2353  -1.2155  -1.2141  -1.2141   0.9379   1.3812   1.3812   1.7938
     2.1532   2.1532   2.7699   2.7700   3.5892   3.5892   4.1140   4.2489
     4.2489   4.6693   4.6693   5.1430   5.1430   5.1505   5.5867   5.5870
     6.4617   6.5302   6.5304   6.7823   6.8591   6.9101   6.9101   6.9155
     6.9155   7.1897   7.1897   7.3485   7.6015   8.2427

     occupation numbers 
     1.0000   1.0000   1.0000   1.0000   1.0000   1.0000   1.0000   1.0000
     1.0000   1.0000   1.0000   1.0000   1.0000   1.0000   1.0000   1.0000
     1.0000   1.0000   1.0000   1.0000   1.0000   1.0000   1.0000   1.0000
     1.0000   1.0000   1.0000   1.0000   1.0000   1.0000   1.0000   1.0000
     1.0000   1.0000   1.0000   1.0000   1.0000   1.0000   1.0000   1.0000
     1.0000   1.0000   1.0000   1.0000   1.0000   1.0000   1.0000   1.0000
     1.0000   1.0000   1.0000   1.0000   1.0000   1.0000   1.0000   1.0000
     1.0000   1.0000   1.0000   1.0000   1.0000   1.0000   1.0000   1.0000
     1.0000   1.0000   1.0000   1.0000   1.0000   1.0000   1.0000   1.0000
     1.0000   1.0000   1.0000   1.0000   1.0000   1.0000   1.0000   1.0000
     1.0000   1.0000   1.0000   1.0000   1.0000   1.0000   1.0000   1.0000
     1.0000   1.0000   1.0000   1.0000   1.0000   1.0000   1.0000   1.0000
     1.0000   1.0000   1.0000   1.0000   1.0000   1.0000   1.0000   1.0000
     1.0000   1.0000   1.0000   1.0000   1.0000   1.0000   1.0000   1.0000
     1.0000   1.0000   1.0000   1.0000   1.0000   1.0000   1.0000   1.0000
     1.0000   1.0000   1.0000   1.0000   1.0000   1.0000   1.0000   1.0000
     1.0000   1.0000   1.0000   1.0000   1.0000   1.0000   1.0000   1.0000
     1.0000   1.0000   1.0000   1.0000   1.0000   1.0000   1.0000   1.0000
     1.0000   1.0000   1.0000   1.0000   1.0000   1.0000   1.0000   0.0061
     0.0000   0.0000   0.0000   0.0000   0.0000   0.0000   0.0000   0.0000
     0.0000   0.0000   0.0000   0.0000   0.0000   0.0000   0.0000   0.0000
     0.0000   0.0000   0.0000   0.0000   0.0000   0.0000   0.0000   0.0000
     0.0000   0.0000   0.0000   0.0000   0.0000   0.0000

     the Fermi energy is     1.7215 ev

!    total energy              =   -4729.28593970 Ry
     estimated scf accuracy    <       0.00000021 Ry
     smearing contrib. (-TS)   =      -0.00084242 Ry
     internal energy E=F+TS    =   -4729.28509728 Ry

     The total energy is F=E-TS. E is the sum of the following terms:
     one-electron contribution =  -13413.70540242 Ry
     hartree contribution      =    6691.89209808 Ry
     xc contribution           =    -462.69981303 Ry
     ewald contribution        =    2455.22802008 Ry

     convergence has been achieved in   5 iterations

     negative rho (up, down):  4.508E-03 0.000E+00

     Forces acting on atoms (cartesian axes, Ry/au):

     atom    1 type  1   force =     0.00000000    0.00000000    0.00854009
     atom    2 type  1   force =     0.00000000   -0.00000277   -0.00855746
     atom    3 type  1   force =    -0.00000277    0.00000000   -0.00855746
     atom    4 type  1   force =     0.00000043    0.00000043    0.00856607
     atom    5 type  1   force =     0.00000000    0.00000000    0.00854723
     atom    6 type  1   force =     0.00000000    0.00000277   -0.00855746
     atom    7 type  1   force =    -0.00000224    0.00000000   -0.00855546
     atom    8 type  1   force =     0.00000043   -0.00000043    0.00856607
     atom    9 type  1   force =     0.00000000    0.00000000    0.00854723
     atom   10 type  1   force =     0.00000000   -0.00000224   -0.00855546
     atom   11 type  1   force =     0.00000277    0.00000000   -0.00855746
     atom   12 type  1   force =    -0.00000043    0.00000043    0.00856607
     atom   13 type  1   force =     0.00000000    0.00000000    0.00855283
     atom   14 type  1   force =     0.00000000    0.00000224   -0.00855546
     atom   15 type  1   force =     0.00000224    0.00000000   -0.00855546
     atom   16 type  1   force =    -0.00000043   -0.00000043    0.00856607
     The non-local contrib.  to forces
     atom    1 type  1   force =     0.00000000    0.00000000   -0.21156245
     atom    2 type  1   force =     0.00000000   -0.00000343    0.21143956
     atom    3 type  1   force =    -0.00000343    0.00000000    0.21143956
     atom    4 type  1   force =    -0.00000198   -0.00000198   -0.21154531
     atom    5 type  1   force =     0.00000000    0.00000000   -0.21155639
     atom    6 type  1   force =     0.00000000    0.00000343    0.21143956
     atom    7 type  1   force =    -0.00000170    0.00000000    0.21143777
     atom    8 type  1   force =    -0.00000198    0.00000198   -0.21154531
     atom    9 type  1   force =     0.00000000    0.00000000   -0.21155639
     atom   10 type  1   force =     0.00000000   -0.00000170    0.21143777
     atom   11 type  1   force =     0.00000343    0.00000000    0.21143956
     atom   12 type  1   force =     0.00000198   -0.00000198   -0.21154531
     atom   13 type  1   force =     0.00000000    0.00000000   -0.21155029
     atom   14 type  1   force =     0.00000000    0.00000170    0.21143777
     atom   15 type  1   force =     0.00000170    0.00000000    0.21143777
     atom   16 type  1   force =     0.00000198    0.00000198   -0.21154531
     The ionic contribution  to forces
     atom    1 type  1   force =    -0.00011548   -0.00011548  -97.95990504
     atom    2 type  1   force =    -0.00011548   -0.00084681   97.95987197
     atom    3 type  1   force =    -0.00084681   -0.00011548   97.95987197
     atom    4 type  1   force =    -0.00074159   -0.00074159  -97.95982081
     atom    5 type  1   force =    -0.00011548    0.00004485  -97.96027388
     atom    6 type  1   force =    -0.00011548    0.00091744   97.95982183
     atom    7 type  1   force =    -0.00062139    0.00004485   97.96025405
     atom    8 type  1   force =    -0.00074159    0.00081222  -97.95977067
     atom    9 type  1   force =     0.00004485   -0.00011548  -97.96027388
     atom   10 type  1   force =     0.00004485   -0.00062139   97.96025405
     atom   11 type  1   force =     0.00091744   -0.00011548   97.95982183
     atom   12 type  1   force =     0.00081222   -0.00074159  -97.95977067
     atom   13 type  1   force =     0.00004485    0.00004485  -97.96076802
     atom   14 type  1   force =     0.00004485    0.00069202   97.96020391
     atom   15 type  1   force =     0.00069202    0.00004485   97.96020391
     atom   16 type  1   force =     0.00081222    0.00081222  -97.95972054
     The local contribution  to forces
     atom    1 type  1   force =    -0.00000000   -0.00000000   98.17936931
     atom    2 type  1   force =    -0.00000000    0.00163382  -98.17778208
     atom    3 type  1   force =     0.00163382   -0.00000000  -98.17778208
     atom    4 type  1   force =     0.00153071    0.00153071   98.17924697
     atom    5 type  1   force =    -0.00000000    0.00077670   98.17974149
     atom    6 type  1   force =    -0.00000000   -0.00008041  -98.17778209
     atom    7 type  1   force =     0.00140856    0.00077671  -98.17814696
     atom    8 type  1   force =     0.00153071    0.00002270   98.17924697
     atom    9 type  1   force =     0.00077670   -0.00000000   98.17974149
     atom   10 type  1   force =     0.00077671    0.00140856  -98.17814696
     atom   11 type  1   force =    -0.00008041   -0.00000000  -98.17778209
     atom   12 type  1   force =     0.00002270    0.00153071   98.17924697
     atom   13 type  1   force =     0.00077670    0.00077670   98.18023622
     atom   14 type  1   force =     0.00077671    0.00014484  -98.17814696
[...]
    -2.3511  -2.3304  -2.2016  -2.2016  -2.1975  -2.1530  -2.1530  -2.1383
    -2.1383  -2.0554  -1.9764  -1.9481  -1.9481  -1.9451  -1.9450  -1.7403
    -1.7403  -1.6728  -1.6727  -1.6364  -1.6363  -1.6255  -1.6255  -1.6128
    -1.5271  -1.5107  -1.5107  -1.4603  -1.4603  -1.4525  -1.4460  -1.4442
    -1.4442  -1.4126  -1.4125  -1.3679  -1.2930  -1.2930  -1.2719  -1.2719
    -1.2027  -1.1897  -1.1847  -1.1847   1.0074   1.4571   1.4571   1.8704
     2.1147   2.1147   2.7311   2.7311   3.5489   3.5489   4.1986   4.2116
     4.2116   4.7466   4.7466   5.2182   5.2370   5.2370   5.6605   5.6606
     6.4749   6.6214   6.6214   6.8047   6.8254   6.9289   6.9289   6.9746
     6.9746   7.2142   7.2142   7.3595   7.6290   8.2112

     occupation numbers 
     1.0000   1.0000   1.0000   1.0000   1.0000   1.0000   1.0000   1.0000
     1.0000   1.0000   1.0000   1.0000   1.0000   1.0000   1.0000   1.0000
     1.0000   1.0000   1.0000   1.0000   1.0000   1.0000   1.0000   1.0000
     1.0000   1.0000   1.0000   1.0000   1.0000   1.0000   1.0000   1.0000
     1.0000   1.0000   1.0000   1.0000   1.0000   1.0000   1.0000   1.0000
     1.0000   1.0000   1.0000   1.0000   1.0000   1.0000   1.0000   1.0000
     1.0000   1.0000   1.0000   1.0000   1.0000   1.0000   1.0000   1.0000
     1.0000   1.0000   1.0000   1.0000   1.0000   1.0000   1.0000   1.0000
     1.0000   1.0000   1.0000   1.0000   1.0000   1.0000   1.0000   1.0000
     1.0000   1.0000   1.0000   1.0000   1.0000   1.0000   1.0000   1.0000
     1.0000   1.0000   1.0000   1.0000   1.0000   1.0000   1.0000   1.0000
     1.0000   1.0000   1.0000   1.0000   1.0000   1.0000   1.0000   1.0000
     1.0000   1.0000   1.0000   1.0000   1.0000   1.0000   1.0000   1.0000
     1.0000   1.0000   1.0000   1.0000   1.0000   1.0000   1.0000   1.0000
     1.0000   1.0000   1.0000   1.0000   1.0000   1.0000   1.0000   1.0000
     1.0000   1.0000   1.0000   1.0000   1.0000   1.0000   1.0000   1.0000
     1.0000   1.0000   1.0000   1.0000   1.0000   1.0000   1.0000   1.0000
     1.0000   1.0000   1.0000   1.0000   1.0000   1.0000   1.0000   1.0000
     1.0000   1.0000   1.0000   1.0000   1.0000   1.0000   1.0000   0.0000
     0.0000   0.0000   0.0000   0.0000   0.0000   0.0000   0.0000   0.0000
     0.0000   0.0000   0.0000   0.0000   0.0000   0.0000   0.0000   0.0000
     0.0000   0.0000   0.0000   0.0000   0.0000   0.0000   0.0000   0.0000
     0.0000   0.0000   0.0000   0.0000   0.0000   0.0000

     the Fermi energy is     1.7023 ev

!    total energy              =   -4729.29188021 Ry
     estimated scf accuracy    <          7.2E-09 Ry
     smearing contrib. (-TS)   =      -0.00043164 Ry
     internal energy E=F+TS    =   -4729.29144857 Ry

     The total energy is F=E-TS. E is the sum of the following terms:
     one-electron contribution =  -13657.48177637 Ry
     hartree contribution      =    6813.42155622 Ry
     xc contribution           =    -462.82715762 Ry
     ewald contribution        =    2577.59592921 Ry

     convergence has been achieved in   5 iterations

     negative rho (up, down):  4.519E-03 0.000E+00

     Forces acting on atoms (cartesian axes, Ry/au):

     atom    1 type  1   force =     0.00000000    0.00000000    0.00009459
     atom    2 type  1   force =     0.00000000    0.00000681   -0.00006963
     atom    3 type  1   force =     0.00000681    0.00000000   -0.00006963
     atom    4 type  1   force =     0.00000700    0.00000700    0.00005317
     atom    5 type  1   force =     0.00000000    0.00000000    0.00008529
     atom    6 type  1   force =     0.00000000   -0.00000681   -0.00006963
     atom    7 type  1   force =     0.00000859    0.00000000   -0.00007488
     atom    8 type  1   force =     0.00000700   -0.00000700    0.00005317
     atom    9 type  1   force =     0.00000000    0.00000000    0.00008529
     atom   10 type  1   force =     0.00000000    0.00000859   -0.00007488
     atom   11 type  1   force =    -0.00000681    0.00000000   -0.00006963
     atom   12 type  1   force =    -0.00000700    0.00000700    0.00005317
     atom   13 type  1   force =     0.00000000    0.00000000    0.00010017
     atom   14 type  1   force =     0.00000000   -0.00000859   -0.00007488
     atom   15 type  1   force =    -0.00000859    0.00000000   -0.00007488
     atom   16 type  1   force =    -0.00000700   -0.00000700    0.00005317
     The non-local contrib.  to forces
     atom    1 type  1   force =     0.00000000    0.00000000   -0.22334243
     atom    2 type  1   force =     0.00000000    0.00000497    0.22338573
     atom    3 type  1   force =     0.00000497    0.00000000    0.22338573
     atom    4 type  1   force =     0.00000456    0.00000456   -0.22336800
     atom    5 type  1   force =     0.00000000    0.00000000   -0.22335071
     atom    6 type  1   force =     0.00000000   -0.00000497    0.22338573
     atom    7 type  1   force =     0.00000612    0.00000000    0.22338632
     atom    8 type  1   force =     0.00000456   -0.00000456   -0.22336800
     atom    9 type  1   force =     0.00000000    0.00000000   -0.22335071
     atom   10 type  1   force =     0.00000000    0.00000612    0.22338632
     atom   11 type  1   force =    -0.00000497    0.00000000    0.22338573
     atom   12 type  1   force =    -0.00000456    0.00000456   -0.22336800
     atom   13 type  1   force =     0.00000000    0.00000000   -0.22334608
     atom   14 type  1   force =     0.00000000   -0.00000612    0.22338632
     atom   15 type  1   force =    -0.00000612    0.00000000    0.22338632
     atom   16 type  1   force =    -0.00000456   -0.00000456   -0.22336800
     The ionic contribution  to forces
     atom    1 type  1   force =    -0.00011930   -0.00011930  -98.63980383
     atom    2 type  1   force =    -0.00011931    0.00086231   98.63787363
     atom    3 type  1   force =     0.00086231   -0.00011931   98.63787363
     atom    4 type  1   force =     0.00094906    0.00094906  -98.63611664
     atom    5 type  1   force =    -0.00011930    0.00004544  -98.63943623
     atom    6 type  1   force =    -0.00011931   -0.00078845   98.63782058
     atom    7 type  1   force =     0.00107721    0.00004544   98.63776533
     atom    8 type  1   force =     0.00094906   -0.00087520  -98.63606358
     atom    9 type  1   force =     0.00004544   -0.00011930  -98.63943623
     atom   10 type  1   force =     0.00004544    0.00107721   98.63776533
     atom   11 type  1   force =    -0.00078845   -0.00011931   98.63782058
     atom   12 type  1   force =    -0.00087520    0.00094906  -98.63606358
     atom   13 type  1   force =     0.00004544    0.00004544  -98.63941302
     atom   14 type  1   force =     0.00004544   -0.00100335   98.63771227
     atom   15 type  1   force =    -0.00100335    0.00004544   98.63771227
     atom   16 type  1   force =    -0.00087520   -0.00087520  -98.63601052
     The local contribution  to forces
     atom    1 type  1   force =    -0.00000000   -0.00000000   98.86145456
     atom    2 type  1   force =    -0.00000000   -0.00004183  -98.85965299
     atom    3 type  1   force =    -0.00004183   -0.00000000  -98.85965299
     atom    4 type  1   force =    -0.00013563   -0.00013563   98.85769983
     atom    5 type  1   force =    -0.00000000    0.00077475   98.86109145
     atom    6 type  1   force =    -0.00000000    0.00159134  -98.85965299
     atom    7 type  1   force =    -0.00026032    0.00077475  -98.85956596
     atom    8 type  1   force =    -0.00013563    0.00168514   98.85769983
     atom    9 type  1   force =     0.00077475   -0.00000000   98.86109145
     atom   10 type  1   force =     0.00077475   -0.00026032  -98.85956596
     atom   11 type  1   force =     0.00159134   -0.00000000  -98.85965299
     atom   12 type  1   force =     0.00168514   -0.00013563   98.85769983
     atom   13 type  1   force =     0.00077476    0.00077476   98.86110048
     atom   14 type  1   force =     0.00077475    0.00180984  -98.85956595
     atom   15 type  1   force =     0.00180984    0.00077475  -98.85956595
     atom   16 type  1   force =     0.00168514    0.00168514   98.85769982
     The core correction contribution to forces
     atom    1 type  1   force =    -0.00000000   -0.00000000    0.00160777
     atom    2 type  1   force =    -0.00000000    0.00000048   -0.00160754
     atom    3 type  1   force =     0.00000048   -0.00000000   -0.00160754
     atom    4 type  1   force =     0.00000048    0.00000048    0.00160675
     atom    5 type  1   force =    -0.00000000    0.00000050    0.00160788
     atom    6 type  1   force =    -0.00000000    0.00000053   -0.00160754
     atom    7 type  1   force =     0.00000047    0.00000050   -0.00160758
     atom    8 type  1   force =     0.00000048    0.00000053    0.00160675
     atom    9 type  1   force =     0.00000050   -0.00000000    0.00160788
     atom   10 type  1   force =     0.00000050    0.00000047   -0.00160758
     atom   11 type  1   force =     0.00000053   -0.00000000   -0.00160754
     atom   12 type  1   force =     0.00000053    0.00000048    0.00160675
     atom   13 type  1   force =     0.00000050    0.00000050    0.00160784
     atom   14 type  1   force =     0.00000050    0.00000054   -0.00160758
     atom   15 type  1   force =     0.00000054    0.00000050   -0.00160758
     atom   16 type  1   force =     0.00000053    0.00000053    0.00160675
     The Hubbard contrib.    to forces
     atom    1 type  1   force =     0.00000000    0.00000000    0.00000000
     atom    2 type  1   force =     0.00000000    0.00000000    0.00000000
     atom    3 type  1   force =     0.00000000    0.00000000    0.00000000
     atom    4 type  1   force =     0.00000000    0.00000000    0.00000000
     atom    5 type  1   force =     0.00000000    0.00000000    0.00000000
     atom    6 type  1   force =     0.00000000    0.00000000    0.00000000
     atom    7 type  1   force =     0.00000000    0.00000000    0.00000000
     atom    8 type  1   force =     0.00000000    0.00000000    0.00000000
     atom    9 type  1   force =     0.00000000    0.00000000    0.00000000
     atom   10 type  1   force =     0.00000000    0.00000000    0.00000000
     atom   11 type  1   force =     0.00000000    0.00000000    0.00000000
     atom   12 type  1   force =     0.00000000    0.00000000    0.00000000
     atom   13 type  1   force =     0.00000000    0.00000000    0.00000000
     atom   14 type  1   force =     0.00000000    0.00000000    0.00000000
     atom   15 type  1   force =     0.00000000    0.00000000    0.00000000
     atom   16 type  1   force =     0.00000000    0.00000000    0.00000000
     The SCF correction term to forces
     atom    1 type  1   force =    -0.00000001   -0.00000001    0.00019511
     atom    2 type  1   force =    -0.00000001   -0.00000693   -0.00002532
     atom    3 type  1   force =    -0.00000693   -0.00000001   -0.00002532
     atom    4 type  1   force =     0.00000072    0.00000072    0.00019475
     atom    5 type  1   force =    -0.00000001   -0.00000000    0.00018950
     atom    6 type  1   force =    -0.00000001    0.00000693   -0.00002533
     atom    7 type  1   force =    -0.00000269   -0.00000000   -0.00000986
     atom    8 type  1   force =     0.00000072   -0.00000072    0.00019476
     atom    9 type  1   force =    -0.00000000   -0.00000001    0.00018950
     atom   10 type  1   force =    -0.00000000   -0.00000269   -0.00000986
     atom   11 type  1   force =     0.00000693   -0.00000001   -0.00002533
     atom   12 type  1   force =    -0.00000072    0.00000072    0.00019476
     atom   13 type  1   force =    -0.00000000   -0.00000000    0.00016756
     atom   14 type  1   force =    -0.00000000    0.00000269   -0.00000987
     atom   15 type  1   force =     0.00000269   -0.00000000   -0.00000987
     atom   16 type  1   force =    -0.00000072   -0.00000072    0.00019477

     Total force =     0.000296     Total SCF correction =     0.000541
     SCF correction compared to forces is large: reduce conv_thr to get better values


     Computing stress (Cartesian axis) and pressure


     negative rho (up, down):  4.519E-03 0.000E+00
          total   stress  (Ry/bohr**3)                   (kbar)     P=      -38.21
  -0.00029091   0.00000000   0.00000000          -42.79        0.00        0.00
   0.00000000  -0.00029091   0.00000000            0.00      -42.79        0.00
   0.00000000   0.00000000  -0.00019742            0.00        0.00      -29.04

     kinetic stress (kbar)  15882.15      0.00      0.00
                                0.00  15882.15      0.00
                                0.00      0.00  15949.35

     local   stress (kbar)-252276.00     -0.00      0.00
                               -0.00-252276.00      0.00
                                0.00      0.00 252136.67

     nonloc. stress (kbar)   1859.32      0.00      0.00
                                0.00   1859.32      0.00
                                0.00      0.00   1840.24

     hartree stress (kbar) 132497.35      0.00      0.00
                                0.00 132497.35     -0.00
                                0.00     -0.00-113514.91

     exc-cor stress (kbar)  -2863.00     -0.00      0.00
                               -0.00  -2863.00      0.00
                                0.00      0.00  -2868.90

     corecor stress (kbar)   -387.77      0.00      0.00
                                0.00   -387.77      0.00
                                0.00      0.00   -387.72

     ewald   stress (kbar) 105245.16      0.00     -0.00
                                0.00 105245.16     -0.00
                               -0.00     -0.00-153183.77

     hubbard stress (kbar)      0.00      0.00      0.00
                                0.00      0.00      0.00
                                0.00      0.00      0.00

     DFT-D   stress (kbar)      0.00      0.00      0.00
                                0.00      0.00      0.00
                                0.00      0.00      0.00

     XDM     stress (kbar)      0.00      0.00      0.00
                                0.00      0.00      0.00
                                0.00      0.00      0.00

     dft-nl  stress (kbar)      0.00      0.00      0.00
                                0.00      0.00      0.00
                                0.00      0.00      0.00

     TS-vdW  stress (kbar)      0.00      0.00      0.00
                                0.00      0.00      0.00
                                0.00      0.00      0.00


     Energy error            =      2.9E-05
     Gradient error          =      1.0E-04

     bfgs converged in   7 scf cycles and   6 bfgs steps
     (criteria: energy <  1.0E-04 Ry, force <  1.0E-03 Ry/Bohr)

     End of BFGS Geometry Optimization

     Final energy   =   -4729.2918802055 Ry

     File ./surface.bfgs deleted, as requested
Begin final coordinates

ATOMIC_POSITIONS (angstrom)
Ag            0.0000000000        0.0000000000        0.0461739237
Ag            0.0000000000        2.0802636016        2.0340754727
Ag            2.0802636016        0.0000000000        2.0340754727
Ag            2.0802638014        2.0802638014        0.0462201363
Ag            0.0000000000        4.1605480000        0.0461689584
Ag            0.0000000000        6.2408323984        2.0340754727
Ag            2.0802623251        4.1605480000        2.0340856692
Ag            2.0802638014        6.2408321986        0.0462201363
Ag            4.1605480000        0.0000000000        0.0461689584
Ag            4.1605480000        2.0802623251        2.0340856692
Ag            6.2408323984        0.0000000000        2.0340754727
Ag            6.2408321986        2.0802638014        0.0462201363
Ag            4.1605480000        4.1605480000        0.0461550465
Ag            4.1605480000        6.2408336749        2.0340856692
Ag            6.2408336749        4.1605480000        2.0340856692
Ag            6.2408321986        6.2408321986        0.0462201363
End final coordinates



     Writing output data file ./surface.save/

     init_run     :      1.53s CPU      1.63s WALL (       1 calls)
     electrons    :    143.96s CPU    148.11s WALL (       7 calls)
     update_pot   :      1.62s CPU      1.64s WALL (       6 calls)
     forces       :      5.60s CPU      5.81s WALL (       7 calls)
     stress       :     18.76s CPU     19.19s WALL (       7 calls)

     Called by init_run:
     wfcinit      :      0.84s CPU      0.87s WALL (       1 calls)
     wfcinit:atom :      0.00s CPU      0.00s WALL (       6 calls)
     wfcinit:wfcr :      0.80s CPU      0.82s WALL (       6 calls)
     potinit      :      0.11s CPU      0.12s WALL (       1 calls)
     hinit0       :      0.17s CPU      0.19s WALL (       1 calls)

     Called by electrons:
     c_bands      :    120.07s CPU    121.46s WALL (      47 calls)
     sum_band     :     18.05s CPU     19.31s WALL (      47 calls)
     v_of_rho     :      1.75s CPU      1.80s WALL (      51 calls)
     v_h          :      0.14s CPU      0.14s WALL (      51 calls)
     v_xc         :      2.06s CPU      2.11s WALL (      65 calls)
     newd         :      4.38s CPU      5.43s WALL (      51 calls)
     mix_rho      :      0.16s CPU      0.16s WALL (      47 calls)

     Called by c_bands:
     init_us_2    :      0.63s CPU      0.64s WALL (     654 calls)
     cegterg      :    117.18s CPU    118.49s WALL (     282 calls)

     Called by sum_band:
     sum_band:wei :      0.02s CPU      0.02s WALL (      47 calls)
     sum_band:loo :     12.22s CPU     12.41s WALL (      47 calls)
     sum_band:buf :      0.20s CPU      0.21s WALL (     282 calls)
     sum_band:ini :      0.28s CPU      0.29s WALL (     282 calls)
     sum_band:cal :      3.47s CPU      3.50s WALL (     282 calls)
     sum_band:bec :      0.15s CPU      0.15s WALL (     282 calls)
     addusdens    :      3.84s CPU      4.90s WALL (      47 calls)
     addusd:skk   :      0.07s CPU      0.07s WALL (      47 calls)
     addusd:dgemm :      1.25s CPU      2.28s WALL (      47 calls)
     addusd:qvan2 :      2.10s CPU      2.12s WALL (      47 calls)

     Called by *egterg:
     cdiaghg      :     20.63s CPU     20.78s WALL (     991 calls)
     cegterg:over :     11.01s CPU     11.09s WALL (     763 calls)
     cegterg:upda :      7.16s CPU      7.21s WALL (     763 calls)
     cegterg:last :     16.67s CPU     16.78s WALL (     575 calls)
     cdiaghg:chol :      0.95s CPU      0.96s WALL (     991 calls)
     cdiaghg:inve :      1.04s CPU      1.04s WALL (     991 calls)
     cdiaghg:para :      2.64s CPU      2.67s WALL (    1982 calls)
     h_psi        :     51.86s CPU     52.73s WALL (    1051 calls)
     s_psi        :      5.92s CPU      5.97s WALL (    1051 calls)
     g_psi        :      0.15s CPU      0.15s WALL (     763 calls)

     Called by h_psi:
     h_psi:calbec :      9.47s CPU      9.54s WALL (    1051 calls)
     vloc_psi     :     36.08s CPU     36.82s WALL (    1051 calls)
     add_vuspsi   :      6.04s CPU      6.09s WALL (    1051 calls)

     General routines
     calbec       :     15.80s CPU     15.91s WALL (    1543 calls)
     fft          :      1.60s CPU      1.64s WALL (     833 calls)
     ffts         :      0.05s CPU      0.05s WALL (      98 calls)
     fftw         :     40.53s CPU     41.35s WALL (  302828 calls)
     interpolate  :      0.13s CPU      0.13s WALL (      51 calls)

     Parallel routines
     fft_scatt_xy :      3.47s CPU      3.53s WALL (  303759 calls)
     fft_scatt_yz :     21.52s CPU     21.99s WALL (  303759 calls)

     PWSCF        :   2m52.64s CPU   2m58.85s WALL


   This run was terminated on:   0:28:24   6Dec2021            

=------------------------------------------------------------------------------=
   JOB DONE.
=------------------------------------------------------------------------------=
