
     Program PWSCF v.6.7MaX starts on  6Dec2021 at  0:25:26 

     This program is part of the open-source Quantum ESPRESSO suite
     for quantum simulation of materials; please cite
         "P. Giannozzi et al., J. Phys.:Condens. Matter 21 395502 (2009);
         "P. Giannozzi et al., J. Phys.:Condens. Matter 29 465901 (2017);
          URL http://www.quantum-espresso.org", 
     in publications or presentations arising from this work. More details at
     http://www.quantum-espresso.org/quote

     Parallel version (MPI), running on    32 processors

     MPI processes distributed on     1 nodes
     R & G space division:  proc/nbgrp/npool/nimage =      32
     Reading input from ag_surface.100.k.qe.4_4_1.in

     Current dimensions of program PWSCF are:
     Max number of different atomic species (ntypx) = 10
     Max number of k-points (npk) =  40000
     Max angular momentum in pseudopotentials (lmaxx) =  3

     Subspace diagonalization in iterative solution of the eigenvalue problem:
     one sub-group per band group will be used
     scalapack distributed-memory algorithm (size of sub-group:  5*  5 procs)

     Found symmetry operation: I + (  0.2500  0.2500  0.0000)
     This is a supercell, fractional translations are disabled

     Parallelization info
     --------------------
     sticks:   dense  smooth     PW     G-vecs:    dense   smooth      PW
     Min         184      73     20                18142     4583     666
     Max         185      74     21                18149     4592     675
     Sum        5909    2361    657               580679   146829   21417



     bravais-lattice index     =            8
     lattice parameter (alat)  =      15.7246  a.u.
     unit-cell volume          =    6616.6507 (a.u.)^3
     number of atoms/cell      =           16
     number of atomic types    =            1
     number of electrons       =       304.00
     number of Kohn-Sham states=          182
     kinetic-energy cutoff     =      30.0000  Ry
     charge density cutoff     =     300.0000  Ry
     scf convergence threshold =      1.0E-06
     mixing beta               =       0.3000
     number of iterations used =            8  plain     mixing
     energy convergence thresh.=      1.0E-04
     force convergence thresh. =      1.0E-03
     Exchange-correlation=  SLA  PW   PBX  PBC
                           (   1   4   3   4   0   0   0)
     nstep                     =           50


     celldm(1)=  15.724600  celldm(2)=   1.000000  celldm(3)=   1.701764
     celldm(4)=   0.000000  celldm(5)=   0.000000  celldm(6)=   0.000000

     crystal axes: (cart. coord. in units of alat)
               a(1) = (   1.000000   0.000000   0.000000 )  
               a(2) = (   0.000000   1.000000   0.000000 )  
               a(3) = (   0.000000   0.000000   1.701764 )  

     reciprocal axes: (cart. coord. in units 2 pi/alat)
               b(1) = (  1.000000  0.000000  0.000000 )  
               b(2) = (  0.000000  1.000000  0.000000 )  
               b(3) = (  0.000000  0.000000  0.587625 )  


     PseudoPot. # 1 for Ag read from file:
     /expanse/lustre/projects/csd622/tpascal/nano110/qe/pseudo/ag_pbe_v1.4.uspp.F.UPF
     MD5 check sum: d66d668201baa78d5eb5b04ef7011058
     Pseudo is Ultrasoft + core correction, Zval = 19.0
     Generated by new atomic code, or converted to UPF format
     Using radial grid of  887 points,  6 beta functions with: 
                l(1) =   0
                l(2) =   0
                l(3) =   1
                l(4) =   1
                l(5) =   2
                l(6) =   2
     Q(r) pseudized with  6 coefficients,  rinner =    1.300   1.300   1.300
                                                       1.300   1.300

     atomic species   valence    mass     pseudopotential
        Ag            19.00   107.86820     Ag( 1.00)

      8 Sym. Ops. (no inversion) found


                                    s                        frac. trans.

      isym =  1     identity                                     

 cryst.   s( 1) = (     1          0          0      )
                  (     0          1          0      )
                  (     0          0          1      )

 cart.    s( 1) = (  1.0000000  0.0000000  0.0000000 )
                  (  0.0000000  1.0000000  0.0000000 )
                  (  0.0000000  0.0000000  1.0000000 )


      isym =  2     180 deg rotation - cart. axis [0,0,1]        

 cryst.   s( 2) = (    -1          0          0      )
                  (     0         -1          0      )
                  (     0          0          1      )

 cart.    s( 2) = ( -1.0000000  0.0000000  0.0000000 )
                  (  0.0000000 -1.0000000  0.0000000 )
                  (  0.0000000  0.0000000  1.0000000 )


      isym =  3      90 deg rotation - cart. axis [0,0,-1]       

 cryst.   s( 3) = (     0         -1          0      )
                  (     1          0          0      )
                  (     0          0          1      )

 cart.    s( 3) = (  0.0000000  1.0000000  0.0000000 )
                  ( -1.0000000  0.0000000  0.0000000 )
                  (  0.0000000  0.0000000  1.0000000 )


      isym =  4      90 deg rotation - cart. axis [0,0,1]        

 cryst.   s( 4) = (     0          1          0      )
                  (    -1          0          0      )
                  (     0          0          1      )

 cart.    s( 4) = (  0.0000000 -1.0000000  0.0000000 )
                  (  1.0000000  0.0000000  0.0000000 )
                  (  0.0000000  0.0000000  1.0000000 )


      isym =  5     inv. 180 deg rotation - cart. axis [0,1,0]   

 cryst.   s( 5) = (     1          0          0      )
                  (     0         -1          0      )
                  (     0          0          1      )

 cart.    s( 5) = (  1.0000000  0.0000000  0.0000000 )
                  (  0.0000000 -1.0000000  0.0000000 )
                  (  0.0000000  0.0000000  1.0000000 )


      isym =  6     inv. 180 deg rotation - cart. axis [1,0,0]   

 cryst.   s( 6) = (    -1          0          0      )
                  (     0          1          0      )
                  (     0          0          1      )

 cart.    s( 6) = ( -1.0000000  0.0000000  0.0000000 )
                  (  0.0000000  1.0000000  0.0000000 )
                  (  0.0000000  0.0000000  1.0000000 )


      isym =  7     inv. 180 deg rotation - cart. axis [1,1,0]   

 cryst.   s( 7) = (     0         -1          0      )
                  (    -1          0          0      )
                  (     0          0          1      )

 cart.    s( 7) = (  0.0000000 -1.0000000  0.0000000 )
                  ( -1.0000000  0.0000000  0.0000000 )
                  (  0.0000000  0.0000000  1.0000000 )


      isym =  8     inv. 180 deg rotation - cart. axis [1,-1,0]  

 cryst.   s( 8) = (     0          1          0      )
                  (     1          0          0      )
                  (     0          0          1      )

 cart.    s( 8) = (  0.0000000  1.0000000  0.0000000 )
                  (  1.0000000  0.0000000  0.0000000 )
                  (  0.0000000  0.0000000  1.0000000 )


     point group C_4v (4mm) 
     there are  5 classes
     the character table:

       E     2C4   C2    2s_v  2s_d 
A_1    1.00  1.00  1.00  1.00  1.00
A_2    1.00  1.00  1.00 -1.00 -1.00
B_1    1.00 -1.00  1.00  1.00 -1.00
B_2    1.00 -1.00  1.00 -1.00  1.00
E      2.00  0.00 -2.00  0.00  0.00

     the symmetry operations in each class and the name of the first element:

     E        1
          identity                                               
     2C4      3    4
           90 deg rotation - cart. axis [0,0,-1]                 
     C2       2
          180 deg rotation - cart. axis [0,0,1]                  
     2s_v     5    6
          inv. 180 deg rotation - cart. axis [0,1,0]             
     2s_d     7    8
          inv. 180 deg rotation - cart. axis [1,1,0]             

   Cartesian axes

     site n.     atom                  positions (alat units)
         1           Ag  tau(   1) = (   0.0000000   0.0000000   0.0000000  )
         2           Ag  tau(   2) = (   0.0000000   0.2499999   0.2499999  )
         3           Ag  tau(   3) = (   0.2499999   0.0000000   0.2499999  )
         4           Ag  tau(   4) = (   0.2499999   0.2499999   0.0000000  )
         5           Ag  tau(   5) = (   0.0000000   0.4999998   0.0000000  )
         6           Ag  tau(   6) = (   0.0000000   0.7499996   0.2499999  )
         7           Ag  tau(   7) = (   0.2499999   0.4999998   0.2499999  )
         8           Ag  tau(   8) = (   0.2499999   0.7499996   0.0000000  )
         9           Ag  tau(   9) = (   0.4999998   0.0000000   0.0000000  )
        10           Ag  tau(  10) = (   0.4999998   0.2499999   0.2499999  )
        11           Ag  tau(  11) = (   0.7499996   0.0000000   0.2499999  )
        12           Ag  tau(  12) = (   0.7499996   0.2499999   0.0000000  )
        13           Ag  tau(  13) = (   0.4999998   0.4999998   0.0000000  )
        14           Ag  tau(  14) = (   0.4999998   0.7499996   0.2499999  )
        15           Ag  tau(  15) = (   0.7499996   0.4999998   0.2499999  )
        16           Ag  tau(  16) = (   0.7499996   0.7499996   0.0000000  )

   Crystallographic axes

     site n.     atom                  positions (cryst. coord.)
         1           Ag  tau(   1) = (  0.0000000  0.0000000  0.0000000  )
         2           Ag  tau(   2) = (  0.0000000  0.2499999  0.1469063  )
         3           Ag  tau(   3) = (  0.2499999  0.0000000  0.1469063  )
         4           Ag  tau(   4) = (  0.2499999  0.2499999  0.0000000  )
         5           Ag  tau(   5) = (  0.0000000  0.4999998  0.0000000  )
         6           Ag  tau(   6) = (  0.0000000  0.7499996  0.1469063  )
         7           Ag  tau(   7) = (  0.2499999  0.4999998  0.1469063  )
         8           Ag  tau(   8) = (  0.2499999  0.7499996  0.0000000  )
         9           Ag  tau(   9) = (  0.4999998  0.0000000  0.0000000  )
        10           Ag  tau(  10) = (  0.4999998  0.2499999  0.1469063  )
        11           Ag  tau(  11) = (  0.7499996  0.0000000  0.1469063  )
        12           Ag  tau(  12) = (  0.7499996  0.2499999  0.0000000  )
        13           Ag  tau(  13) = (  0.4999998  0.4999998  0.0000000  )
        14           Ag  tau(  14) = (  0.4999998  0.7499996  0.1469063  )
        15           Ag  tau(  15) = (  0.7499996  0.4999998  0.1469063  )
        16           Ag  tau(  16) = (  0.7499996  0.7499996  0.0000000  )

     number of k points=     6  Gaussian smearing, width (Ry)=  0.0030
                       cart. coord. in units 2pi/alat
        k(    1) = (   0.0000000   0.0000000   0.0000000), wk =   0.1250000
        k(    2) = (   0.0000000   0.2500000   0.0000000), wk =   0.5000000
        k(    3) = (   0.0000000  -0.5000000   0.0000000), wk =   0.2500000
        k(    4) = (   0.2500000   0.2500000   0.0000000), wk =   0.5000000
        k(    5) = (   0.2500000  -0.5000000   0.0000000), wk =   0.5000000
        k(    6) = (  -0.5000000  -0.5000000   0.0000000), wk =   0.1250000

                       cryst. coord.
        k(    1) = (   0.0000000   0.0000000   0.0000000), wk =   0.1250000
        k(    2) = (   0.0000000   0.2500000   0.0000000), wk =   0.5000000
        k(    3) = (   0.0000000  -0.5000000   0.0000000), wk =   0.2500000
        k(    4) = (   0.2500000   0.2500000   0.0000000), wk =   0.5000000
        k(    5) = (   0.2500000  -0.5000000   0.0000000), wk =   0.5000000
        k(    6) = (  -0.5000000  -0.5000000   0.0000000), wk =   0.1250000

     Dense  grid:   580679 G-vectors     FFT dimensions: (  90,  90, 150)

     Smooth grid:   146829 G-vectors     FFT dimensions: (  60,  60,  96)

     Dynamical RAM for                 wfc:       1.59 MB

     Dynamical RAM for     wfc (w. buffer):      11.14 MB

     Dynamical RAM for           str. fact:       0.28 MB

     Dynamical RAM for           local pot:       0.00 MB

     Dynamical RAM for          nlocal pot:       2.52 MB

     Dynamical RAM for                qrad:       1.39 MB

     Dynamical RAM for          rho,v,vnew:       1.76 MB

     Dynamical RAM for               rhoin:       0.59 MB

     Dynamical RAM for            rho*nmix:       4.43 MB

     Dynamical RAM for           G-vectors:       1.07 MB

     Dynamical RAM for          h,s,v(r/c):       0.24 MB

     Dynamical RAM for          <psi|beta>:       0.80 MB

     Dynamical RAM for                 psi:       3.18 MB

     Dynamical RAM for                hpsi:       3.18 MB

     Dynamical RAM for                spsi:       3.18 MB

     Dynamical RAM for      wfcinit/wfcrot:       4.63 MB

     Dynamical RAM for           addusdens:      55.92 MB

     Dynamical RAM for          addusforce:      64.43 MB

     Dynamical RAM for         addusstress:      55.65 MB

     Estimated static dynamical RAM per process >      25.27 MB

     Estimated max dynamical RAM per process >      89.70 MB

     Estimated total dynamical RAM >       2.80 GB

     Initial potential from superposition of free atoms

     starting charge  295.99924, renormalised to  304.00000

     negative rho (up, down):  5.356E-03 0.000E+00
     Starting wfcs are  208 randomized atomic wfcs

     total cpu time spent up to now is        2.0 secs

     Self-consistent Calculation

     iteration #  1     ecut=    30.00 Ry     beta= 0.30
     Davidson diagonalization with overlap
     ethr =  1.00E-02,  avg # of iterations =  7.5

     negative rho (up, down):  5.707E-04 0.000E+00

     total cpu time spent up to now is        7.4 secs

     total energy              =   -4722.94621740 Ry
     estimated scf accuracy    <      27.54797045 Ry

     iteration #  2     ecut=    30.00 Ry     beta= 0.30
     Davidson diagonalization with overlap
     ethr =  9.06E-03,  avg # of iterations =  2.0

     negative rho (up, down):  1.012E-03 0.000E+00

     total cpu time spent up to now is       11.0 secs

     total energy              =   -4729.12125375 Ry
     estimated scf accuracy    <       1.43055037 Ry

     iteration #  3     ecut=    30.00 Ry     beta= 0.30
     Davidson diagonalization with overlap
     ethr =  4.71E-04,  avg # of iterations =  2.2

     negative rho (up, down):  1.658E-03 0.000E+00

     total cpu time spent up to now is       14.5 secs

     total energy              =   -4729.28333642 Ry
     estimated scf accuracy    <       0.06737303 Ry

     iteration #  4     ecut=    30.00 Ry     beta= 0.30
     Davidson diagonalization with overlap
     ethr =  2.22E-05,  avg # of iterations =  7.5

     negative rho (up, down):  4.348E-03 0.000E+00

     total cpu time spent up to now is       19.3 secs

     total energy              =   -4729.28951985 Ry
     estimated scf accuracy    <       0.01215679 Ry

     iteration #  5     ecut=    30.00 Ry     beta= 0.30
     Davidson diagonalization with overlap
     ethr =  4.00E-06,  avg # of iterations =  6.3

     negative rho (up, down):  4.072E-03 0.000E+00

     total cpu time spent up to now is       23.5 secs

     total energy              =   -4729.29031414 Ry
     estimated scf accuracy    <       0.00036899 Ry

     iteration #  6     ecut=    30.00 Ry     beta= 0.30
     Davidson diagonalization with overlap
     ethr =  1.21E-07,  avg # of iterations =  2.0

     negative rho (up, down):  4.330E-03 0.000E+00

     total cpu time spent up to now is       26.9 secs

     total energy              =   -4729.29035978 Ry
     estimated scf accuracy    <       0.00005176 Ry

     iteration #  7     ecut=    30.00 Ry     beta= 0.30
     Davidson diagonalization with overlap
     ethr =  1.70E-08,  avg # of iterations =  2.0

     negative rho (up, down):  4.413E-03 0.000E+00

     total cpu time spent up to now is       30.1 secs

     total energy              =   -4729.29036391 Ry
     estimated scf accuracy    <       0.00001627 Ry

     iteration #  8     ecut=    30.00 Ry     beta= 0.30
     Davidson diagonalization with overlap
     ethr =  5.35E-09,  avg # of iterations =  2.0

     negative rho (up, down):  4.459E-03 0.000E+00

     total cpu time spent up to now is       33.3 secs

     End of self-consistent calculation

          k = 0.0000 0.0000 0.0000 ( 18383 PWs)   bands (ev):

   -89.9376 -89.9310 -89.9310 -89.9310 -89.9310 -89.9289 -89.9289 -89.9289
   -89.9287 -89.9287 -89.9266 -89.9266 -89.9266 -89.9266 -89.9245 -89.9243
   -53.4548 -53.4548 -53.4524 -53.4524 -53.4522 -53.4522 -53.4233 -53.4233
   -53.4233 -53.4233 -53.4212 -53.4212 -53.4212 -53.4212 -53.4189 -53.4178
   -53.4178 -53.4097 -53.4097 -53.4097 -53.4097 -53.3904 -53.3904 -53.3904
   -53.3904 -53.3873 -53.3873 -53.3841 -53.3841 -53.3841 -53.3841 -53.3760
   -53.3758 -53.3725 -53.3725 -53.3723 -53.3723 -53.3697 -53.3697 -53.3695
   -53.3695 -53.3632 -53.3632 -53.3593 -53.3593 -53.3593 -53.3593 -53.3570
    -4.2254  -3.7426  -3.7124  -3.6015  -3.6014  -3.5319  -3.5318  -3.5318
    -3.5318  -3.4040  -3.4040  -3.1037  -3.1037  -3.1036  -3.1036  -3.0980
    -3.0980  -3.0980  -3.0980  -3.0524  -2.9831  -2.9831  -2.9831  -2.9831
    -2.7769  -2.7769  -2.7768  -2.7768  -2.6484  -2.6484  -2.6484  -2.6484
    -2.3771  -2.3771  -2.3771  -2.3771  -2.3136  -2.3136  -2.3135  -2.3135
    -2.2480  -2.2480  -2.2480  -2.2480  -2.2429  -2.2429  -2.2273  -2.2273
    -2.2273  -2.2273  -2.0669  -1.8534  -1.8534  -1.8534  -1.8534  -1.8064
    -1.8064  -1.8064  -1.8064  -1.7694  -1.7694  -1.6415  -1.6415  -1.6414
    -1.6414  -1.5762  -1.5003  -1.5001  -1.4020  -1.4020  -1.4020  -1.4020
    -1.3994  -1.3994  -1.3993  -1.3993  -1.2974  -1.2974  -1.2243  -0.8491
    -0.8489  -0.5809  -0.5809  -0.5808  -0.5808   0.1889   1.8928   1.8929
     1.8929   1.8930   2.5283   2.5283   2.5284   2.5284   3.0460   4.7997
     4.7997   4.7998   4.7999   5.1465   5.1465   5.7296   5.9294   5.9294
     5.9295   5.9295   6.1367   8.0187   8.0187   8.0191   8.0191   8.1670
     8.1671   8.1671   8.1672   8.6673   8.6673   8.6677

     occupation numbers 
     1.0000   1.0000   1.0000   1.0000   1.0000   1.0000   1.0000   1.0000
     1.0000   1.0000   1.0000   1.0000   1.0000   1.0000   1.0000   1.0000
     1.0000   1.0000   1.0000   1.0000   1.0000   1.0000   1.0000   1.0000
     1.0000   1.0000   1.0000   1.0000   1.0000   1.0000   1.0000   1.0000
     1.0000   1.0000   1.0000   1.0000   1.0000   1.0000   1.0000   1.0000
     1.0000   1.0000   1.0000   1.0000   1.0000   1.0000   1.0000   1.0000
     1.0000   1.0000   1.0000   1.0000   1.0000   1.0000   1.0000   1.0000
     1.0000   1.0000   1.0000   1.0000   1.0000   1.0000   1.0000   1.0000
     1.0000   1.0000   1.0000   1.0000   1.0000   1.0000   1.0000   1.0000
     1.0000   1.0000   1.0000   1.0000   1.0000   1.0000   1.0000   1.0000
     1.0000   1.0000   1.0000   1.0000   1.0000   1.0000   1.0000   1.0000
     1.0000   1.0000   1.0000   1.0000   1.0000   1.0000   1.0000   1.0000
     1.0000   1.0000   1.0000   1.0000   1.0000   1.0000   1.0000   1.0000
     1.0000   1.0000   1.0000   1.0000   1.0000   1.0000   1.0000   1.0000
     1.0000   1.0000   1.0000   1.0000   1.0000   1.0000   1.0000   1.0000
     1.0000   1.0000   1.0000   1.0000   1.0000   1.0000   1.0000   1.0000
     1.0000   1.0000   1.0000   1.0000   1.0000   1.0000   1.0000   1.0000
     1.0000   1.0000   1.0000   1.0000   1.0000   1.0000   1.0000   1.0000
     1.0000   1.0000   1.0000   1.0000   1.0000   1.0000   0.0000   0.0000
     0.0000   0.0000   0.0000   0.0000   0.0000   0.0000   0.0000   0.0000
     0.0000   0.0000   0.0000   0.0000   0.0000   0.0000   0.0000   0.0000
     0.0000   0.0000   0.0000   0.0000   0.0000   0.0000   0.0000   0.0000
     0.0000   0.0000   0.0000   0.0000   0.0000   0.0000

          k = 0.0000 0.2500 0.0000 ( 18325 PWs)   bands (ev):

   -89.9371 -89.9335 -89.9308 -89.9308 -89.9296 -89.9296 -89.9287 -89.9285
   -89.9280 -89.9279 -89.9275 -89.9268 -89.9268 -89.9258 -89.9249 -89.9246
   -53.4523 -53.4514 -53.4504 -53.4504 -53.4478 -53.4478 -53.4337 -53.4325
   -53.4312 -53.4312 -53.4289 -53.4289 -53.4182 -53.4181 -53.4174 -53.4157
   -53.4145 -53.4083 -53.4039 -53.4003 -53.3987 -53.3987 -53.3899 -53.3896
   -53.3865 -53.3865 -53.3826 -53.3812 -53.3812 -53.3793 -53.3793 -53.3774
   -53.3774 -53.3768 -53.3751 -53.3751 -53.3744 -53.3695 -53.3695 -53.3675
   -53.3675 -53.3653 -53.3650 -53.3642 -53.3602 -53.3602 -53.3563 -53.3553
    -4.0827  -3.6807  -3.6256  -3.5350  -3.5328  -3.4866  -3.4865  -3.4780
    -3.4779  -3.3722  -3.3716  -3.2545  -3.2402  -3.2099  -3.1887  -3.1886
    -3.1792  -3.1792  -3.1608  -3.1172  -3.1079  -2.9952  -2.9941  -2.9506
    -2.9506  -2.8426  -2.8426  -2.6686  -2.6686  -2.6078  -2.6078  -2.5686
    -2.4648  -2.4269  -2.4269  -2.3694  -2.3694  -2.3602  -2.3602  -2.3550
    -2.3550  -2.3510  -2.2902  -2.2782  -2.2748  -2.1019  -2.1019  -2.0769
    -2.0680  -2.0160  -1.9812  -1.9458  -1.8171  -1.8084  -1.7713  -1.7502
    -1.7502  -1.7473  -1.7473  -1.6926  -1.6926  -1.6722  -1.6682  -1.6303
    -1.5383  -1.5383  -1.5376  -1.5165  -1.4893  -1.4893  -1.4110  -1.4110
    -1.3890  -1.3890  -1.3747  -1.3622  -1.3259  -1.3077  -1.2722  -1.1731
    -1.0316  -0.9447  -0.4536  -0.4535   0.3442   0.6210   0.7848   0.7849
     1.5267   2.6487   2.6488   3.0854   3.0854   3.2760   3.8147   4.0099
     4.1256   4.1257   4.8078   5.4651   5.8075   5.8076   5.8755   6.0370
     6.0371   6.2629   7.0300   7.1514   7.1936   7.1938   7.2368   7.2761
     7.9359   7.9361   8.1339   8.1342   8.3005   8.3006

     occupation numbers 
     1.0000   1.0000   1.0000   1.0000   1.0000   1.0000   1.0000   1.0000
     1.0000   1.0000   1.0000   1.0000   1.0000   1.0000   1.0000   1.0000
     1.0000   1.0000   1.0000   1.0000   1.0000   1.0000   1.0000   1.0000
     1.0000   1.0000   1.0000   1.0000   1.0000   1.0000   1.0000   1.0000
     1.0000   1.0000   1.0000   1.0000   1.0000   1.0000   1.0000   1.0000
     1.0000   1.0000   1.0000   1.0000   1.0000   1.0000   1.0000   1.0000
     1.0000   1.0000   1.0000   1.0000   1.0000   1.0000   1.0000   1.0000
     1.0000   1.0000   1.0000   1.0000   1.0000   1.0000   1.0000   1.0000
     1.0000   1.0000   1.0000   1.0000   1.0000   1.0000   1.0000   1.0000
     1.0000   1.0000   1.0000   1.0000   1.0000   1.0000   1.0000   1.0000
     1.0000   1.0000   1.0000   1.0000   1.0000   1.0000   1.0000   1.0000
     1.0000   1.0000   1.0000   1.0000   1.0000   1.0000   1.0000   1.0000
     1.0000   1.0000   1.0000   1.0000   1.0000   1.0000   1.0000   1.0000
     1.0000   1.0000   1.0000   1.0000   1.0000   1.0000   1.0000   1.0000
     1.0000   1.0000   1.0000   1.0000   1.0000   1.0000   1.0000   1.0000
     1.0000   1.0000   1.0000   1.0000   1.0000   1.0000   1.0000   1.0000
     1.0000   1.0000   1.0000   1.0000   1.0000   1.0000   1.0000   1.0000
     1.0000   1.0000   1.0000   1.0000   1.0000   1.0000   1.0000   1.0000
     1.0000   1.0000   1.0000   1.0000   1.0000   1.0000   1.0000   1.0000
     0.9994   0.0000   0.0000   0.0000   0.0000   0.0000   0.0000   0.0000
     0.0000   0.0000   0.0000   0.0000   0.0000   0.0000   0.0000   0.0000
     0.0000   0.0000   0.0000   0.0000   0.0000   0.0000   0.0000   0.0000
     0.0000   0.0000   0.0000   0.0000   0.0000   0.0000

          k = 0.0000-0.5000 0.0000 ( 18312 PWs)   bands (ev):

   -89.9357 -89.9355 -89.9304 -89.9304 -89.9303 -89.9303 -89.9283 -89.9281
   -89.9273 -89.9273 -89.9272 -89.9272 -89.9264 -89.9263 -89.9251 -89.9250
   -53.4444 -53.4444 -53.4442 -53.4442 -53.4434 -53.4434 -53.4434 -53.4434
   -53.4391 -53.4391 -53.4390 -53.4390 -53.4177 -53.4176 -53.4170 -53.4168
   -53.4102 -53.4101 -53.3971 -53.3969 -53.3965 -53.3963 -53.3850 -53.3850
   -53.3850 -53.3850 -53.3821 -53.3821 -53.3820 -53.3820 -53.3795 -53.3793
   -53.3745 -53.3745 -53.3745 -53.3744 -53.3709 -53.3707 -53.3706 -53.3705
   -53.3698 -53.3697 -53.3631 -53.3630 -53.3629 -53.3629 -53.3546 -53.3545
    -3.6918  -3.6916  -3.5038  -3.5037  -3.3922  -3.3921  -3.3701  -3.3700
    -3.3553  -3.3552  -3.3552  -3.3551  -3.3478  -3.3476  -3.3408  -3.3407
    -3.3407  -3.3407  -3.2814  -3.2812  -3.2561  -3.2560  -2.8916  -2.8916
    -2.8915  -2.8915  -2.8289  -2.8288  -2.5325  -2.5325  -2.5324  -2.5324
    -2.4760  -2.4759  -2.4758  -2.4758  -2.4392  -2.4392  -2.4392  -2.4392
    -2.3709  -2.3707  -2.3339  -2.3338  -2.1129  -2.1128  -1.9287  -1.9287
    -1.9046  -1.9046  -1.9046  -1.9046  -1.8973  -1.8972  -1.7987  -1.7986
    -1.6596  -1.6594  -1.6205  -1.6205  -1.6204  -1.6204  -1.5687  -1.5686
    -1.4855  -1.4855  -1.4854  -1.4854  -1.4715  -1.4714  -1.4529  -1.4528
    -1.4528  -1.4528  -1.4191  -1.4189  -1.3361  -1.3360  -1.3321  -1.3321
    -1.1745  -1.1744  -0.0124  -0.0123  -0.0123  -0.0122   0.7977   0.7978
     2.2286   2.2287   2.9930   2.9931   2.9931   2.9932   3.9006   3.9007
     5.2769   5.2770   5.2770   5.2770   5.3802   5.3803   6.2328   6.2329
     6.2330   6.2330   6.3112   6.3112   6.3146   6.3148   6.6420   6.6421
     8.1663   8.1663   8.1665   8.1665   8.6938   8.6938

     occupation numbers 
     1.0000   1.0000   1.0000   1.0000   1.0000   1.0000   1.0000   1.0000
     1.0000   1.0000   1.0000   1.0000   1.0000   1.0000   1.0000   1.0000
     1.0000   1.0000   1.0000   1.0000   1.0000   1.0000   1.0000   1.0000
     1.0000   1.0000   1.0000   1.0000   1.0000   1.0000   1.0000   1.0000
     1.0000   1.0000   1.0000   1.0000   1.0000   1.0000   1.0000   1.0000
     1.0000   1.0000   1.0000   1.0000   1.0000   1.0000   1.0000   1.0000
     1.0000   1.0000   1.0000   1.0000   1.0000   1.0000   1.0000   1.0000
     1.0000   1.0000   1.0000   1.0000   1.0000   1.0000   1.0000   1.0000
     1.0000   1.0000   1.0000   1.0000   1.0000   1.0000   1.0000   1.0000
     1.0000   1.0000   1.0000   1.0000   1.0000   1.0000   1.0000   1.0000
     1.0000   1.0000   1.0000   1.0000   1.0000   1.0000   1.0000   1.0000
     1.0000   1.0000   1.0000   1.0000   1.0000   1.0000   1.0000   1.0000
     1.0000   1.0000   1.0000   1.0000   1.0000   1.0000   1.0000   1.0000
     1.0000   1.0000   1.0000   1.0000   1.0000   1.0000   1.0000   1.0000
     1.0000   1.0000   1.0000   1.0000   1.0000   1.0000   1.0000   1.0000
     1.0000   1.0000   1.0000   1.0000   1.0000   1.0000   1.0000   1.0000
     1.0000   1.0000   1.0000   1.0000   1.0000   1.0000   1.0000   1.0000
     1.0000   1.0000   1.0000   1.0000   1.0000   1.0000   1.0000   1.0000
     1.0000   1.0000   1.0000   1.0000   1.0000   1.0000   1.0000   1.0000
     0.0000   0.0000   0.0000   0.0000   0.0000   0.0000   0.0000   0.0000
     0.0000   0.0000   0.0000   0.0000   0.0000   0.0000   0.0000   0.0000
     0.0000   0.0000   0.0000   0.0000   0.0000   0.0000   0.0000   0.0000
     0.0000   0.0000   0.0000   0.0000   0.0000   0.0000

          k = 0.2500 0.2500 0.0000 ( 18375 PWs)   bands (ev):

   -89.9366 -89.9332 -89.9332 -89.9311 -89.9286 -89.9285 -89.9285 -89.9283
   -89.9281 -89.9278 -89.9275 -89.9274 -89.9261 -89.9261 -89.9252 -89.9250
   -53.4508 -53.4507 -53.4507 -53.4506 -53.4451 -53.4413 -53.4406 -53.4406
   -53.4376 -53.4376 -53.4211 -53.4211 -53.4205 -53.4205 -53.4184 -53.4146
   -53.4145 -53.4062 -53.4062 -53.3989 -53.3957 -53.3957 -53.3914 -53.3914
   -53.3858 -53.3845 -53.3845 -53.3824 -53.3820 -53.3820 -53.3793 -53.3791
   -53.3760 -53.3758 -53.3752 -53.3723 -53.3722 -53.3717 -53.3717 -53.3713
   -53.3659 -53.3654 -53.3654 -53.3636 -53.3634 -53.3566 -53.3565 -53.3563
    -3.9638  -3.6824  -3.5206  -3.5025  -3.4878  -3.4694  -3.4693  -3.3972
    -3.3972  -3.3649  -3.3649  -3.3450  -3.3449  -3.3282  -3.3282  -3.2270
    -3.2270  -3.2030  -3.2030  -3.0552  -3.0552  -3.0064  -3.0064  -2.9476
    -2.9476  -2.9211  -2.9155  -2.7281  -2.7280  -2.5946  -2.5040  -2.5039
    -2.4794  -2.4794  -2.4642  -2.4642  -2.3785  -2.2843  -2.2843  -2.2782
    -2.2650  -2.2650  -2.2289  -2.2180  -2.2107  -2.2107  -2.1065  -2.1065
    -2.0910  -2.0114  -1.9541  -1.9541  -1.8974  -1.8974  -1.8054  -1.8054
    -1.7252  -1.6806  -1.6806  -1.6436  -1.6436  -1.5998  -1.5998  -1.5809
    -1.5808  -1.5808  -1.5806  -1.5679  -1.4877  -1.4841  -1.4840  -1.4420
    -1.4168  -1.4168  -1.3450  -1.3450  -1.3081  -1.2961  -1.2511  -1.1486
    -1.1486  -1.0910  -1.0909  -0.4000   0.4878   0.8417   0.8417   1.6400
     1.6400   2.2706   2.2706   2.6101   3.4908   3.9556   3.9556   4.2908
     4.2908   4.9556   4.9556   5.0008   5.1005   5.1007   5.8684   6.0206
     6.0260   6.0260   6.3892   7.1664   7.1664   7.2399   7.2399   7.3987
     7.3987   7.4047   7.4048   7.8971   8.4400   8.6976

     occupation numbers 
     1.0000   1.0000   1.0000   1.0000   1.0000   1.0000   1.0000   1.0000
     1.0000   1.0000   1.0000   1.0000   1.0000   1.0000   1.0000   1.0000
     1.0000   1.0000   1.0000   1.0000   1.0000   1.0000   1.0000   1.0000
     1.0000   1.0000   1.0000   1.0000   1.0000   1.0000   1.0000   1.0000
     1.0000   1.0000   1.0000   1.0000   1.0000   1.0000   1.0000   1.0000
     1.0000   1.0000   1.0000   1.0000   1.0000   1.0000   1.0000   1.0000
     1.0000   1.0000   1.0000   1.0000   1.0000   1.0000   1.0000   1.0000
     1.0000   1.0000   1.0000   1.0000   1.0000   1.0000   1.0000   1.0000
     1.0000   1.0000   1.0000   1.0000   1.0000   1.0000   1.0000   1.0000
     1.0000   1.0000   1.0000   1.0000   1.0000   1.0000   1.0000   1.0000
     1.0000   1.0000   1.0000   1.0000   1.0000   1.0000   1.0000   1.0000
     1.0000   1.0000   1.0000   1.0000   1.0000   1.0000   1.0000   1.0000
     1.0000   1.0000   1.0000   1.0000   1.0000   1.0000   1.0000   1.0000
     1.0000   1.0000   1.0000   1.0000   1.0000   1.0000   1.0000   1.0000
     1.0000   1.0000   1.0000   1.0000   1.0000   1.0000   1.0000   1.0000
     1.0000   1.0000   1.0000   1.0000   1.0000   1.0000   1.0000   1.0000
     1.0000   1.0000   1.0000   1.0000   1.0000   1.0000   1.0000   1.0000
     1.0000   1.0000   1.0000   1.0000   1.0000   1.0000   1.0000   1.0000
     1.0000   1.0000   1.0000   1.0000   1.0000   1.0000   1.0000   0.2503
     0.2503   0.0000   0.0000   0.0000   0.0000   0.0000   0.0000   0.0000
     0.0000   0.0000   0.0000   0.0000   0.0000   0.0000   0.0000   0.0000
     0.0000   0.0000   0.0000   0.0000   0.0000   0.0000   0.0000   0.0000
     0.0000   0.0000   0.0000   0.0000   0.0000   0.0000

          k = 0.2500-0.5000 0.0000 ( 18370 PWs)   bands (ev):

   -89.9353 -89.9352 -89.9325 -89.9323 -89.9284 -89.9283 -89.9282 -89.9281
   -89.9277 -89.9275 -89.9270 -89.9268 -89.9265 -89.9264 -89.9256 -89.9254
   -53.4478 -53.4478 -53.4470 -53.4469 -53.4461 -53.4460 -53.4455 -53.4455
   -53.4342 -53.4342 -53.4306 -53.4305 -53.4186 -53.4185 -53.4122 -53.4121
   -53.4096 -53.4096 -53.4068 -53.4066 -53.3919 -53.3918 -53.3870 -53.3870
   -53.3857 -53.3856 -53.3853 -53.3852 -53.3809 -53.3809 -53.3784 -53.3783
   -53.3783 -53.3782 -53.3778 -53.3777 -53.3711 -53.3710 -53.3681 -53.3680
   -53.3668 -53.3668 -53.3652 -53.3652 -53.3598 -53.3597 -53.3560 -53.3558
    -3.6580  -3.6579  -3.5721  -3.5721  -3.4776  -3.4775  -3.4488  -3.4487
    -3.3329  -3.3329  -3.3093  -3.3091  -3.2949  -3.2948  -3.2935  -3.2934
    -3.2544  -3.2542  -3.2307  -3.2306  -3.2230  -3.2230  -2.9441  -2.9440
    -2.8991  -2.8989  -2.8094  -2.8093  -2.6977  -2.6976  -2.4971  -2.4971
    -2.4709  -2.4709  -2.4231  -2.4230  -2.3794  -2.3794  -2.3419  -2.3419
    -2.2498  -2.2498  -2.2024  -2.2022  -2.1977  -2.1976  -2.1250  -2.1249
    -1.9292  -1.9291  -1.9085  -1.9084  -1.8675  -1.8674  -1.7803  -1.7803
    -1.7481  -1.7480  -1.6539  -1.6538  -1.6055  -1.6055  -1.5953  -1.5952
    -1.5437  -1.5437  -1.5343  -1.5342  -1.4760  -1.4759  -1.4239  -1.4237
    -1.4072  -1.4072  -1.3925  -1.3924  -1.3760  -1.3760  -1.2483  -1.2483
    -1.2198  -1.2198  -1.0692  -1.0691   0.9203   0.9204   1.4311   1.4312
     1.9961   1.9962   2.4856   2.4857   3.9440   3.9440   4.0828   4.0829
     4.5179   4.5179   5.0226   5.0228   5.3642   5.3642   5.5548   5.5549
     6.4538   6.4538   6.5096   6.5096   6.6061   6.6062   6.7689   6.7690
     7.5559   7.5560   7.7918   7.7918   7.7946   8.3620

     occupation numbers 
     1.0000   1.0000   1.0000   1.0000   1.0000   1.0000   1.0000   1.0000
     1.0000   1.0000   1.0000   1.0000   1.0000   1.0000   1.0000   1.0000
     1.0000   1.0000   1.0000   1.0000   1.0000   1.0000   1.0000   1.0000
     1.0000   1.0000   1.0000   1.0000   1.0000   1.0000   1.0000   1.0000
     1.0000   1.0000   1.0000   1.0000   1.0000   1.0000   1.0000   1.0000
     1.0000   1.0000   1.0000   1.0000   1.0000   1.0000   1.0000   1.0000
     1.0000   1.0000   1.0000   1.0000   1.0000   1.0000   1.0000   1.0000
     1.0000   1.0000   1.0000   1.0000   1.0000   1.0000   1.0000   1.0000
     1.0000   1.0000   1.0000   1.0000   1.0000   1.0000   1.0000   1.0000
     1.0000   1.0000   1.0000   1.0000   1.0000   1.0000   1.0000   1.0000
     1.0000   1.0000   1.0000   1.0000   1.0000   1.0000   1.0000   1.0000
     1.0000   1.0000   1.0000   1.0000   1.0000   1.0000   1.0000   1.0000
     1.0000   1.0000   1.0000   1.0000   1.0000   1.0000   1.0000   1.0000
     1.0000   1.0000   1.0000   1.0000   1.0000   1.0000   1.0000   1.0000
     1.0000   1.0000   1.0000   1.0000   1.0000   1.0000   1.0000   1.0000
     1.0000   1.0000   1.0000   1.0000   1.0000   1.0000   1.0000   1.0000
     1.0000   1.0000   1.0000   1.0000   1.0000   1.0000   1.0000   1.0000
     1.0000   1.0000   1.0000   1.0000   1.0000   1.0000   1.0000   1.0000
     1.0000   1.0000   1.0000   1.0000   1.0000   1.0000   1.0000   1.0000
     0.0000   0.0000   0.0000   0.0000   0.0000   0.0000   0.0000   0.0000
     0.0000   0.0000   0.0000   0.0000   0.0000   0.0000   0.0000   0.0000
     0.0000   0.0000   0.0000   0.0000   0.0000   0.0000   0.0000   0.0000
     0.0000   0.0000   0.0000   0.0000   0.0000   0.0000

          k =-0.5000-0.5000 0.0000 ( 18336 PWs)   bands (ev):

   -89.9342 -89.9341 -89.9341 -89.9339 -89.9281 -89.9279 -89.9279 -89.9278
   -89.9269 -89.9267 -89.9267 -89.9266 -89.9266 -89.9265 -89.9265 -89.9263
   -53.4480 -53.4480 -53.4480 -53.4480 -53.4479 -53.4478 -53.4478 -53.4478
   -53.4227 -53.4227 -53.4227 -53.4227 -53.4224 -53.4224 -53.4223 -53.4223
   -53.3995 -53.3995 -53.3995 -53.3995 -53.3993 -53.3993 -53.3993 -53.3993
   -53.3840 -53.3840 -53.3840 -53.3839 -53.3808 -53.3808 -53.3808 -53.3808
   -53.3738 -53.3736 -53.3736 -53.3736 -53.3735 -53.3735 -53.3735 -53.3733
   -53.3633 -53.3632 -53.3632 -53.3632 -53.3580 -53.3578 -53.3578 -53.3577
    -3.5705  -3.5704  -3.5704  -3.5703  -3.5689  -3.5688  -3.5688  -3.5688
    -3.2933  -3.2933  -3.2933  -3.2932  -3.2932  -3.2932  -3.2931  -3.2931
    -3.0806  -3.0805  -3.0805  -3.0805  -3.0804  -3.0804  -3.0804  -3.0803
    -3.0235  -3.0234  -3.0234  -3.0233  -2.4812  -2.4812  -2.4812  -2.4811
    -2.4716  -2.4716  -2.4716  -2.4715  -2.2215  -2.2215  -2.2215  -2.2215
    -2.1346  -2.1346  -2.1346  -2.1346  -2.1344  -2.1344  -2.1344  -2.1344
    -1.9914  -1.9913  -1.9913  -1.9912  -1.9876  -1.9875  -1.9875  -1.9875
    -1.7313  -1.7313  -1.7313  -1.7312  -1.7312  -1.7311  -1.7311  -1.7311
    -1.5579  -1.5579  -1.5579  -1.5578  -1.4564  -1.4563  -1.4563  -1.4562
    -1.3462  -1.3462  -1.3462  -1.3462  -1.3461  -1.3461  -1.3461  -1.3461
    -1.2362  -1.2362  -1.2362  -1.2361   1.3085   1.3086   1.3086   1.3088
     3.1481   3.1481   3.1482   3.1482   3.1482   3.1482   3.1483   3.1483
     4.5965   4.5966   4.5966   4.5967   5.9976   5.9976   5.9976   5.9977
     5.9977   5.9978   5.9978   5.9978   6.8770   6.8770   6.8770   6.8771
     7.1507   7.1507   7.1507   7.1508   8.1765   8.1765

     occupation numbers 
     1.0000   1.0000   1.0000   1.0000   1.0000   1.0000   1.0000   1.0000
     1.0000   1.0000   1.0000   1.0000   1.0000   1.0000   1.0000   1.0000
     1.0000   1.0000   1.0000   1.0000   1.0000   1.0000   1.0000   1.0000
     1.0000   1.0000   1.0000   1.0000   1.0000   1.0000   1.0000   1.0000
     1.0000   1.0000   1.0000   1.0000   1.0000   1.0000   1.0000   1.0000
     1.0000   1.0000   1.0000   1.0000   1.0000   1.0000   1.0000   1.0000
     1.0000   1.0000   1.0000   1.0000   1.0000   1.0000   1.0000   1.0000
     1.0000   1.0000   1.0000   1.0000   1.0000   1.0000   1.0000   1.0000
     1.0000   1.0000   1.0000   1.0000   1.0000   1.0000   1.0000   1.0000
     1.0000   1.0000   1.0000   1.0000   1.0000   1.0000   1.0000   1.0000
     1.0000   1.0000   1.0000   1.0000   1.0000   1.0000   1.0000   1.0000
     1.0000   1.0000   1.0000   1.0000   1.0000   1.0000   1.0000   1.0000
     1.0000   1.0000   1.0000   1.0000   1.0000   1.0000   1.0000   1.0000
     1.0000   1.0000   1.0000   1.0000   1.0000   1.0000   1.0000   1.0000
     1.0000   1.0000   1.0000   1.0000   1.0000   1.0000   1.0000   1.0000
     1.0000   1.0000   1.0000   1.0000   1.0000   1.0000   1.0000   1.0000
     1.0000   1.0000   1.0000   1.0000   1.0000   1.0000   1.0000   1.0000
     1.0000   1.0000   1.0000   1.0000   1.0000   1.0000   1.0000   1.0000
     1.0000   1.0000   1.0000   1.0000   1.0000   1.0000   1.0000   1.0000
     0.0000   0.0000   0.0000   0.0000   0.0000   0.0000   0.0000   0.0000
     0.0000   0.0000   0.0000   0.0000   0.0000   0.0000   0.0000   0.0000
     0.0000   0.0000   0.0000   0.0000   0.0000   0.0000   0.0000   0.0000
     0.0000   0.0000   0.0000   0.0000   0.0000   0.0000

     the Fermi energy is     1.6206 ev

!    total energy              =   -4729.29036733 Ry
     estimated scf accuracy    <       0.00000092 Ry
     smearing contrib. (-TS)   =      -0.00067666 Ry
     internal energy E=F+TS    =   -4729.28969067 Ry

     The total energy is F=E-TS. E is the sum of the following terms:
     one-electron contribution =  -13383.67491134 Ry
     hartree contribution      =    6676.72708135 Ry
     xc contribution           =    -462.68724664 Ry
     ewald contribution        =    2440.34538596 Ry

     convergence has been achieved in   8 iterations

     negative rho (up, down):  4.459E-03 0.000E+00

     Forces acting on atoms (cartesian axes, Ry/au):

     atom    1 type  1   force =     0.00000000    0.00000000    0.00870423
     atom    2 type  1   force =     0.00000000   -0.00001824   -0.00872149
     atom    3 type  1   force =    -0.00001824    0.00000000   -0.00872149
     atom    4 type  1   force =    -0.00002092   -0.00002092    0.00873087
     atom    5 type  1   force =     0.00000000    0.00000000    0.00870598
     atom    6 type  1   force =     0.00000000    0.00001824   -0.00872149
     atom    7 type  1   force =    -0.00002520    0.00000000   -0.00871339
     atom    8 type  1   force =    -0.00002092    0.00002092    0.00873087
     atom    9 type  1   force =     0.00000000    0.00000000    0.00870598
     atom   10 type  1   force =     0.00000000   -0.00002520   -0.00871339
     atom   11 type  1   force =     0.00001824    0.00000000   -0.00872149
     atom   12 type  1   force =     0.00002092   -0.00002092    0.00873087
     atom   13 type  1   force =     0.00000000    0.00000000    0.00869984
     atom   14 type  1   force =     0.00000000    0.00002520   -0.00871339
     atom   15 type  1   force =     0.00002520    0.00000000   -0.00871339
     atom   16 type  1   force =     0.00002092    0.00002092    0.00873087
     The non-local contrib.  to forces
     atom    1 type  1   force =     0.00000000    0.00000000   -0.20138453
     atom    2 type  1   force =     0.00000000   -0.00000756    0.20131629
     atom    3 type  1   force =    -0.00000756    0.00000000    0.20131629
     atom    4 type  1   force =    -0.00000615   -0.00000615   -0.20139378
     atom    5 type  1   force =     0.00000000    0.00000000   -0.20138919
     atom    6 type  1   force =     0.00000000    0.00000756    0.20131629
     atom    7 type  1   force =    -0.00000567    0.00000000    0.20132114
     atom    8 type  1   force =    -0.00000615    0.00000615   -0.20139378
     atom    9 type  1   force =     0.00000000    0.00000000   -0.20138919
     atom   10 type  1   force =     0.00000000   -0.00000567    0.20132114
     atom   11 type  1   force =     0.00000756    0.00000000    0.20131629
     atom   12 type  1   force =     0.00000615   -0.00000615   -0.20139378
     atom   13 type  1   force =     0.00000000    0.00000000   -0.20139114
     atom   14 type  1   force =     0.00000000    0.00000567    0.20132114
     atom   15 type  1   force =     0.00000567    0.00000000    0.20132114
     atom   16 type  1   force =     0.00000615    0.00000615   -0.20139378
     The ionic contribution  to forces
     atom    1 type  1   force =    -0.00011503   -0.00011503  -97.86675895
     atom    2 type  1   force =    -0.00011503   -0.00004478   97.86680874
     atom    3 type  1   force =    -0.00004478   -0.00011503   97.86680874
     atom    4 type  1   force =    -0.00004478   -0.00004478  -97.86685853
     atom    5 type  1   force =    -0.00011503    0.00004478  -97.86680874
     atom    6 type  1   force =    -0.00011503    0.00011503   97.86675895
     atom    7 type  1   force =    -0.00004478    0.00004478   97.86685853
     atom    8 type  1   force =    -0.00004478    0.00011503  -97.86680874
     atom    9 type  1   force =     0.00004478   -0.00011503  -97.86680874
     atom   10 type  1   force =     0.00004478   -0.00004478   97.86685853
     atom   11 type  1   force =     0.00011503   -0.00011503   97.86675895
     atom   12 type  1   force =     0.00011503   -0.00004478  -97.86680874
     atom   13 type  1   force =     0.00004478    0.00004478  -97.86685853
     atom   14 type  1   force =     0.00004478    0.00011503   97.86680874
     atom   15 type  1   force =     0.00011503    0.00004478   97.86680874
     atom   16 type  1   force =     0.00011503    0.00011503  -97.86675895
     The local contribution  to forces
     atom    1 type  1   force =    -0.00000000   -0.00000000   98.07337364
     atom    2 type  1   force =    -0.00000000    0.00101749  -98.07302227
     atom    3 type  1   force =     0.00101749   -0.00000000  -98.07302227
     atom    4 type  1   force =     0.00104161    0.00104161   98.07344767
     atom    5 type  1   force =    -0.00000000    0.00077694   98.07345635
     atom    6 type  1   force =    -0.00000000    0.00053638  -98.07302227
     atom    7 type  1   force =     0.00104849    0.00077694  -98.07312665
     atom    8 type  1   force =     0.00104161    0.00051226   98.07344767
     atom    9 type  1   force =     0.00077694   -0.00000000   98.07345635
     atom   10 type  1   force =     0.00077694    0.00104849  -98.07312665
     atom   11 type  1   force =     0.00053638   -0.00000000  -98.07302227
     atom   12 type  1   force =     0.00051226    0.00104161   98.07344767
     atom   13 type  1   force =     0.00077694    0.00077694   98.07357789
     atom   14 type  1   force =     0.00077694    0.00050538  -98.07312665
     atom   15 type  1   force =     0.00050538    0.00077694  -98.07312665
     atom   16 type  1   force =     0.00051226    0.00051226   98.07344767
     The core correction contribution to forces
     atom    1 type  1   force =    -0.00000000   -0.00000000    0.00145351
     atom    2 type  1   force =    -0.00000000    0.00000042   -0.00145332
     atom    3 type  1   force =     0.00000042   -0.00000000   -0.00145332
     atom    4 type  1   force =     0.00000041    0.00000041    0.00145401
     atom    5 type  1   force =    -0.00000000    0.00000050    0.00145355
     atom    6 type  1   force =    -0.00000000    0.00000058   -0.00145332
     atom    7 type  1   force =     0.00000041    0.00000050   -0.00145332
     atom    8 type  1   force =     0.00000041    0.00000059    0.00145401
     atom    9 type  1   force =     0.00000050   -0.00000000    0.00145355
     atom   10 type  1   force =     0.00000050    0.00000041   -0.00145332
     atom   11 type  1   force =     0.00000058   -0.00000000   -0.00145332
     atom   12 type  1   force =     0.00000059    0.00000041    0.00145401
     atom   13 type  1   force =     0.00000050    0.00000050    0.00145354
     atom   14 type  1   force =     0.00000050    0.00000060   -0.00145332
     atom   15 type  1   force =     0.00000060    0.00000050   -0.00145332
     atom   16 type  1   force =     0.00000059    0.00000059    0.00145401
     The Hubbard contrib.    to forces
     atom    1 type  1   force =     0.00000000    0.00000000    0.00000000
     atom    2 type  1   force =     0.00000000    0.00000000    0.00000000
     atom    3 type  1   force =     0.00000000    0.00000000    0.00000000
     atom    4 type  1   force =     0.00000000    0.00000000    0.00000000
     atom    5 type  1   force =     0.00000000    0.00000000    0.00000000
     atom    6 type  1   force =     0.00000000    0.00000000    0.00000000
     atom    7 type  1   force =     0.00000000    0.00000000    0.00000000
     atom    8 type  1   force =     0.00000000    0.00000000    0.00000000
     atom    9 type  1   force =     0.00000000    0.00000000    0.00000000
     atom   10 type  1   force =     0.00000000    0.00000000    0.00000000
     atom   11 type  1   force =     0.00000000    0.00000000    0.00000000
     atom   12 type  1   force =     0.00000000    0.00000000    0.00000000
     atom   13 type  1   force =     0.00000000    0.00000000    0.00000000
     atom   14 type  1   force =     0.00000000    0.00000000    0.00000000
     atom   15 type  1   force =     0.00000000    0.00000000    0.00000000
     atom   16 type  1   force =     0.00000000    0.00000000    0.00000000
     The SCF correction term to forces
     atom    1 type  1   force =    -0.00000011   -0.00000011    0.00193424
     atom    2 type  1   force =    -0.00000011   -0.00017073   -0.00243233
     atom    3 type  1   force =    -0.00017073   -0.00000011   -0.00243233
     atom    4 type  1   force =    -0.00019893   -0.00019893    0.00194535
     atom    5 type  1   force =    -0.00000011    0.00000053    0.00190770
     atom    6 type  1   force =    -0.00000011    0.00017177   -0.00243238
     atom    7 type  1   force =    -0.00021058    0.00000053   -0.00237449
     atom    8 type  1   force =    -0.00019893    0.00019997    0.00194540
     atom    9 type  1   force =     0.00000053   -0.00000011    0.00190770
     atom   10 type  1   force =     0.00000053   -0.00021058   -0.00237449
     atom   11 type  1   force =     0.00017177   -0.00000011   -0.00243238
     atom   12 type  1   force =     0.00019997   -0.00019893    0.00194540
     atom   13 type  1   force =     0.00000053    0.00000053    0.00183176
     atom   14 type  1   force =     0.00000053    0.00021162   -0.00237455
     atom   15 type  1   force =     0.00021162    0.00000053   -0.00237455
     atom   16 type  1   force =     0.00019997    0.00019997    0.00194545

     Total force =     0.034870     Total SCF correction =     0.008738
     SCF correction compared to forces is large: reduce conv_thr to get better values


     Computing stress (Cartesian axis) and pressure


     negative rho (up, down):  4.459E-03 0.000E+00
          total   stress  (Ry/bohr**3)                   (kbar)     P=      -44.82
  -0.00033580   0.00000000   0.00000000          -49.40        0.00        0.00
   0.00000000  -0.00033580   0.00000000            0.00      -49.40        0.00
   0.00000000   0.00000000  -0.00024241            0.00        0.00      -35.66

     kinetic stress (kbar)  15875.90      0.00      0.00
                                0.00  15875.90      0.00
                                0.00      0.00  15948.92

     local   stress (kbar)-245538.36     -0.00      0.00
                               -0.00-245538.36      0.00
                                0.00      0.00 244751.52

     nonloc. stress (kbar)   1856.00      0.00      0.00
                                0.00   1856.00      0.00
                                0.00      0.00   1838.00

     hartree stress (kbar) 129204.21     -0.00     -0.00
                               -0.00 129204.21     -0.00
                               -0.00     -0.00-109967.68

     exc-cor stress (kbar)  -2862.24     -0.00     -0.00
                               -0.00  -2862.24     -0.00
                               -0.00     -0.00  -2868.09

     corecor stress (kbar)   -387.77      0.00      0.00
                                0.00   -387.77      0.00
                                0.00      0.00   -387.73

     ewald   stress (kbar) 101802.86      0.00     -0.00
                                0.00 101802.86     -0.00
                               -0.00     -0.00-149350.60

     hubbard stress (kbar)      0.00      0.00      0.00
                                0.00      0.00      0.00
                                0.00      0.00      0.00

     DFT-D   stress (kbar)      0.00      0.00      0.00
                                0.00      0.00      0.00
                                0.00      0.00      0.00

     XDM     stress (kbar)      0.00      0.00      0.00
                                0.00      0.00      0.00
                                0.00      0.00      0.00

     dft-nl  stress (kbar)      0.00      0.00      0.00
                                0.00      0.00      0.00
                                0.00      0.00      0.00

     TS-vdW  stress (kbar)      0.00      0.00      0.00
                                0.00      0.00      0.00
                                0.00      0.00      0.00



     BFGS Geometry Optimization
     Energy error            =      0.0E+00
     Gradient error          =      8.7E-03

     number of scf cycles    =   1
     number of bfgs steps    =   0

     energy   new            =   -4729.2903673345 Ry

     new trust radius        =       0.0087309225 bohr
     new conv_thr            =       0.0000010000 Ry


ATOMIC_POSITIONS (angstrom)
Ag            0.0000000000        0.0000000000        0.0046060821
Ag            0.0000000000        2.0802643457        2.0756587877
Ag            2.0802643457        0.0000000000        2.0756587877
Ag            2.0802629282        2.0802629282        0.0046201787
Ag            0.0000000000        4.1605480000        0.0046070082
Ag            0.0000000000        6.2408316543        2.0756587877
Ag            2.0802606631        4.1605480000        2.0756630702
Ag            2.0802629282        6.2408330718        0.0046201787
Ag            4.1605480000        0.0000000000        0.0046070082
Ag            4.1605480000        2.0802606631        2.0756630702
Ag            6.2408316543        0.0000000000        2.0756587877
Ag            6.2408330718        2.0802629282        0.0046201787
Ag            4.1605480000        4.1605480000        0.0046037555
Ag            4.1605480000        6.2408353369        2.0756630702
Ag            6.2408353369        4.1605480000        2.0756630702
Ag            6.2408330718        6.2408330718        0.0046201787



     Writing output data file ./surface.save/
     NEW-OLD atomic charge density approx. for the potential

     negative rho (up, down):  4.497E-03 0.000E+00

     total cpu time spent up to now is       38.7 secs

     Self-consistent Calculation

     iteration #  1     ecut=    30.00 Ry     beta= 0.30
     Davidson diagonalization with overlap
     ethr =  1.00E-06,  avg # of iterations =  4.3

     Threshold (ethr) on eigenvalues was too large:
     Diagonalizing with lowered threshold

     Davidson diagonalization with overlap
     ethr =  1.68E-08,  avg # of iterations =  2.2

     negative rho (up, down):  4.498E-03 0.000E+00

     total cpu time spent up to now is       47.1 secs

     total energy              =   -4729.29147271 Ry
     estimated scf accuracy    <       0.00005273 Ry

     iteration #  2     ecut=    30.00 Ry     beta= 0.30
     Davidson diagonalization with overlap
     ethr =  1.73E-08,  avg # of iterations =  2.0

     negative rho (up, down):  4.497E-03 0.000E+00

     total cpu time spent up to now is       50.2 secs

     total energy              =   -4729.29147802 Ry
     estimated scf accuracy    <       0.00000834 Ry

     iteration #  3     ecut=    30.00 Ry     beta= 0.30
     Davidson diagonalization with overlap
     ethr =  2.74E-09,  avg # of iterations =  2.8

     negative rho (up, down):  4.495E-03 0.000E+00

     total cpu time spent up to now is       53.2 secs

     total energy              =   -4729.29147824 Ry
     estimated scf accuracy    <       0.00000378 Ry

     iteration #  4     ecut=    30.00 Ry     beta= 0.30
     Davidson diagonalization with overlap
     ethr =  1.24E-09,  avg # of iterations =  2.8

     negative rho (up, down):  4.494E-03 0.000E+00

     total cpu time spent up to now is       56.3 secs

     total energy              =   -4729.29147862 Ry
     estimated scf accuracy    <       0.00000171 Ry

     iteration #  5     ecut=    30.00 Ry     beta= 0.30
     Davidson diagonalization with overlap
     ethr =  5.62E-10,  avg # of iterations =  2.0

     negative rho (up, down):  4.490E-03 0.000E+00

     total cpu time spent up to now is       59.4 secs

     End of self-consistent calculation

          k = 0.0000 0.0000 0.0000 ( 18383 PWs)   bands (ev):

   -89.9460 -89.9393 -89.9393 -89.9393 -89.9393 -89.9371 -89.9371 -89.9370
   -89.9370 -89.9369 -89.9348 -89.9348 -89.9348 -89.9347 -89.9327 -89.9326
   -53.4633 -53.4633 -53.4608 -53.4608 -53.4607 -53.4607 -53.4320 -53.4320
   -53.4320 -53.4320 -53.4296 -53.4296 -53.4296 -53.4296 -53.4278 -53.4252
   -53.4252 -53.4179 -53.4179 -53.4179 -53.4179 -53.3979 -53.3979 -53.3979
   -53.3979 -53.3956 -53.3956 -53.3921 -53.3921 -53.3921 -53.3921 -53.3843
   -53.3842 -53.3803 -53.3802 -53.3802 -53.3802 -53.3776 -53.3776 -53.3775
   -53.3774 -53.3708 -53.3708 -53.3669 -53.3669 -53.3669 -53.3669 -53.3647
    -4.2423  -3.7578  -3.7272  -3.6160  -3.6159  -3.5486  -3.5486  -3.5486
    -3.5486  -3.4223  -3.4223  -3.1176  -3.1176  -3.1176  -3.1176  -3.1175
    -3.1175  -3.1174  -3.1174  -3.0537  -2.9977  -2.9977  -2.9977  -2.9977
    -2.7804  -2.7804  -2.7803  -2.7803  -2.6642  -2.6642  -2.6642  -2.6642
    -2.3865  -2.3865  -2.3865  -2.3865  -2.3297  -2.3297  -2.3296  -2.3296
    -2.2583  -2.2583  -2.2537  -2.2537  -2.2537  -2.2537  -2.2407  -2.2407
    -2.2407  -2.2407  -2.0645  -1.8564  -1.8564  -1.8564  -1.8564  -1.8072
    -1.8072  -1.8072  -1.8072  -1.7700  -1.7700  -1.6495  -1.6495  -1.6495
    -1.6495  -1.5891  -1.5032  -1.5031  -1.4007  -1.4007  -1.4007  -1.4007
    -1.4003  -1.4003  -1.4003  -1.4003  -1.2998  -1.2998  -1.2279  -0.8567
    -0.8566  -0.5860  -0.5860  -0.5859  -0.5859   0.1931   1.8836   1.8837
     1.8837   1.8838   2.5372   2.5372   2.5373   2.5373   3.0541   4.8035
     4.8036   4.8036   4.8037   5.1347   5.1347   5.7281   5.9353   5.9353
     5.9353   5.9353   6.1375   8.0178   8.0178   8.0180   8.0180   8.1692
     8.1693   8.1696   8.1697   8.6746   8.6746   8.6750

     occupation numbers 
     1.0000   1.0000   1.0000   1.0000   1.0000   1.0000   1.0000   1.0000
     1.0000   1.0000   1.0000   1.0000   1.0000   1.0000   1.0000   1.0000
     1.0000   1.0000   1.0000   1.0000   1.0000   1.0000   1.0000   1.0000
     1.0000   1.0000   1.0000   1.0000   1.0000   1.0000   1.0000   1.0000
     1.0000   1.0000   1.0000   1.0000   1.0000   1.0000   1.0000   1.0000
     1.0000   1.0000   1.0000   1.0000   1.0000   1.0000   1.0000   1.0000
     1.0000   1.0000   1.0000   1.0000   1.0000   1.0000   1.0000   1.0000
     1.0000   1.0000   1.0000   1.0000   1.0000   1.0000   1.0000   1.0000
     1.0000   1.0000   1.0000   1.0000   1.0000   1.0000   1.0000   1.0000
     1.0000   1.0000   1.0000   1.0000   1.0000   1.0000   1.0000   1.0000
     1.0000   1.0000   1.0000   1.0000   1.0000   1.0000   1.0000   1.0000
     1.0000   1.0000   1.0000   1.0000   1.0000   1.0000   1.0000   1.0000
     1.0000   1.0000   1.0000   1.0000   1.0000   1.0000   1.0000   1.0000
     1.0000   1.0000   1.0000   1.0000   1.0000   1.0000   1.0000   1.0000
     1.0000   1.0000   1.0000   1.0000   1.0000   1.0000   1.0000   1.0000
     1.0000   1.0000   1.0000   1.0000   1.0000   1.0000   1.0000   1.0000
     1.0000   1.0000   1.0000   1.0000   1.0000   1.0000   1.0000   1.0000
     1.0000   1.0000   1.0000   1.0000   1.0000   1.0000   1.0000   1.0000
     1.0000   1.0000   1.0000   1.0000   1.0000   1.0000   0.0000   0.0000
     0.0000   0.0000   0.0000   0.0000   0.0000   0.0000   0.0000   0.0000
     0.0000   0.0000   0.0000   0.0000   0.0000   0.0000   0.0000   0.0000
     0.0000   0.0000   0.0000   0.0000   0.0000   0.0000   0.0000   0.0000
     0.0000   0.0000   0.0000   0.0000   0.0000   0.0000

          k = 0.0000 0.2500 0.0000 ( 18325 PWs)   bands (ev):

   -89.9455 -89.9418 -89.9391 -89.9391 -89.9379 -89.9379 -89.9368 -89.9368
   -89.9362 -89.9361 -89.9356 -89.9349 -89.9349 -89.9339 -89.9331 -89.9328
   -53.4608 -53.4599 -53.4588 -53.4588 -53.4563 -53.4563 -53.4422 -53.4411
   -53.4396 -53.4396 -53.4376 -53.4376 -53.4270 -53.4263 -53.4257 -53.4231
   -53.4225 -53.4167 -53.4122 -53.4078 -53.4069 -53.4069 -53.3983 -53.3980
   -53.3943 -53.3943 -53.3907 -53.3890 -53.3890 -53.3870 -53.3868 -53.3853
   -53.3853 -53.3851 -53.3832 -53.3831 -53.3826 -53.3774 -53.3774 -53.3752
   -53.3752 -53.3728 -53.3726 -53.3720 -53.3678 -53.3678 -53.3640 -53.3629
    -4.0997  -3.6960  -3.6404  -3.5493  -3.5473  -3.5040  -3.5040  -3.4941
    -3.4941  -3.3903  -3.3900  -3.2718  -3.2568  -3.2233  -3.2077  -3.2077
    -3.1937  -3.1936  -3.1802  -3.1320  -3.1225  -3.0107  -2.9968  -2.9640
    -2.9640  -2.8486  -2.8486  -2.6710  -2.6710  -2.6235  -2.6235  -2.5724
    -2.4772  -2.4382  -2.4382  -2.3851  -2.3851  -2.3758  -2.3758  -2.3656
    -2.3587  -2.3587  -2.3039  -2.2933  -2.2899  -2.1138  -2.1138  -2.0746
    -2.0696  -2.0238  -1.9901  -1.9525  -1.8202  -1.8091  -1.7726  -1.7599
    -1.7599  -1.7486  -1.7486  -1.6960  -1.6960  -1.6850  -1.6712  -1.6323
    -1.5443  -1.5443  -1.5414  -1.5194  -1.4905  -1.4905  -1.4111  -1.4111
    -1.3899  -1.3899  -1.3747  -1.3608  -1.3287  -1.3098  -1.2756  -1.1761
    -1.0396  -0.9511  -0.4596  -0.4596   0.3487   0.6134   0.7756   0.7757
     1.5340   2.6571   2.6571   3.0807   3.0807   3.2840   3.8245   4.0001
     4.1273   4.1273   4.8145   5.4538   5.8092   5.8093   5.8740   6.0424
     6.0425   6.2638   7.0289   7.1609   7.1862   7.1862   7.2421   7.2779
     7.4992   7.9443   7.9444   8.1327   8.1329   8.3027

     occupation numbers 
     1.0000   1.0000   1.0000   1.0000   1.0000   1.0000   1.0000   1.0000
     1.0000   1.0000   1.0000   1.0000   1.0000   1.0000   1.0000   1.0000
     1.0000   1.0000   1.0000   1.0000   1.0000   1.0000   1.0000   1.0000
     1.0000   1.0000   1.0000   1.0000   1.0000   1.0000   1.0000   1.0000
     1.0000   1.0000   1.0000   1.0000   1.0000   1.0000   1.0000   1.0000
     1.0000   1.0000   1.0000   1.0000   1.0000   1.0000   1.0000   1.0000
     1.0000   1.0000   1.0000   1.0000   1.0000   1.0000   1.0000   1.0000
     1.0000   1.0000   1.0000   1.0000   1.0000   1.0000   1.0000   1.0000
     1.0000   1.0000   1.0000   1.0000   1.0000   1.0000   1.0000   1.0000
     1.0000   1.0000   1.0000   1.0000   1.0000   1.0000   1.0000   1.0000
     1.0000   1.0000   1.0000   1.0000   1.0000   1.0000   1.0000   1.0000
     1.0000   1.0000   1.0000   1.0000   1.0000   1.0000   1.0000   1.0000
     1.0000   1.0000   1.0000   1.0000   1.0000   1.0000   1.0000   1.0000
     1.0000   1.0000   1.0000   1.0000   1.0000   1.0000   1.0000   1.0000
     1.0000   1.0000   1.0000   1.0000   1.0000   1.0000   1.0000   1.0000
     1.0000   1.0000   1.0000   1.0000   1.0000   1.0000   1.0000   1.0000
     1.0000   1.0000   1.0000   1.0000   1.0000   1.0000   1.0000   1.0000
     1.0000   1.0000   1.0000   1.0000   1.0000   1.0000   1.0000   1.0000
     1.0000   1.0000   1.0000   1.0000   1.0000   1.0000   1.0000   1.0000
     0.9994   0.0000   0.0000   0.0000   0.0000   0.0000   0.0000   0.0000
     0.0000   0.0000   0.0000   0.0000   0.0000   0.0000   0.0000   0.0000
     0.0000   0.0000   0.0000   0.0000   0.0000   0.0000   0.0000   0.0000
     0.0000   0.0000   0.0000   0.0000   0.0000   0.0000

          k = 0.0000-0.5000 0.0000 ( 18312 PWs)   bands (ev):

   -89.9440 -89.9439 -89.9387 -89.9387 -89.9385 -89.9385 -89.9364 -89.9362
   -89.9355 -89.9355 -89.9354 -89.9353 -89.9347 -89.9345 -89.9333 -89.9332
   -53.4529 -53.4529 -53.4528 -53.4527 -53.4519 -53.4519 -53.4519 -53.4519
   -53.4476 -53.4476 -53.4475 -53.4475 -53.4259 -53.4258 -53.4255 -53.4254
   -53.4177 -53.4175 -53.4055 -53.4053 -53.4049 -53.4047 -53.3932 -53.3931
   -53.3931 -53.3931 -53.3900 -53.3900 -53.3899 -53.3899 -53.3877 -53.3876
   -53.3823 -53.3822 -53.3822 -53.3822 -53.3785 -53.3783 -53.3781 -53.3780
   -53.3778 -53.3777 -53.3707 -53.3707 -53.3705 -53.3705 -53.3622 -53.3621
    -3.7091  -3.7089  -3.5196  -3.5194  -3.4071  -3.4069  -3.3837  -3.3836
    -3.3734  -3.3734  -3.3733  -3.3733  -3.3624  -3.3622  -3.3561  -3.3561
    -3.3561  -3.3561  -3.3001  -3.2999  -3.2737  -3.2737  -2.9015  -2.9015
    -2.9014  -2.9014  -2.8314  -2.8312  -2.5389  -2.5389  -2.5388  -2.5388
    -2.4872  -2.4872  -2.4871  -2.4871  -2.4529  -2.4529  -2.4529  -2.4528
    -2.3853  -2.3851  -2.3486  -2.3484  -2.1114  -2.1113  -1.9422  -1.9422
    -1.9156  -1.9156  -1.9156  -1.9156  -1.8992  -1.8990  -1.8025  -1.8024
    -1.6651  -1.6649  -1.6219  -1.6219  -1.6218  -1.6218  -1.5717  -1.5715
    -1.4876  -1.4875  -1.4875  -1.4875  -1.4801  -1.4800  -1.4559  -1.4559
    -1.4558  -1.4558  -1.4219  -1.4218  -1.3374  -1.3373  -1.3351  -1.3351
    -1.1772  -1.1770  -0.0204  -0.0204  -0.0203  -0.0202   0.8033   0.8034
     2.2199   2.2200   2.9995   2.9996   2.9997   2.9997   3.9080   3.9081
     5.2695   5.2696   5.2696   5.2696   5.3902   5.3903   6.2361   6.2362
     6.2362   6.2363   6.3044   6.3046   6.3099   6.3099   6.6433   6.6434
     8.1677   8.1678   8.1678   8.1678   8.6987   8.6987

     occupation numbers 
     1.0000   1.0000   1.0000   1.0000   1.0000   1.0000   1.0000   1.0000
     1.0000   1.0000   1.0000   1.0000   1.0000   1.0000   1.0000   1.0000
     1.0000   1.0000   1.0000   1.0000   1.0000   1.0000   1.0000   1.0000
     1.0000   1.0000   1.0000   1.0000   1.0000   1.0000   1.0000   1.0000
     1.0000   1.0000   1.0000   1.0000   1.0000   1.0000   1.0000   1.0000
     1.0000   1.0000   1.0000   1.0000   1.0000   1.0000   1.0000   1.0000
     1.0000   1.0000   1.0000   1.0000   1.0000   1.0000   1.0000   1.0000
     1.0000   1.0000   1.0000   1.0000   1.0000   1.0000   1.0000   1.0000
     1.0000   1.0000   1.0000   1.0000   1.0000   1.0000   1.0000   1.0000
     1.0000   1.0000   1.0000   1.0000   1.0000   1.0000   1.0000   1.0000
     1.0000   1.0000   1.0000   1.0000   1.0000   1.0000   1.0000   1.0000
     1.0000   1.0000   1.0000   1.0000   1.0000   1.0000   1.0000   1.0000
     1.0000   1.0000   1.0000   1.0000   1.0000   1.0000   1.0000   1.0000
     1.0000   1.0000   1.0000   1.0000   1.0000   1.0000   1.0000   1.0000
     1.0000   1.0000   1.0000   1.0000   1.0000   1.0000   1.0000   1.0000
     1.0000   1.0000   1.0000   1.0000   1.0000   1.0000   1.0000   1.0000
     1.0000   1.0000   1.0000   1.0000   1.0000   1.0000   1.0000   1.0000
     1.0000   1.0000   1.0000   1.0000   1.0000   1.0000   1.0000   1.0000
     1.0000   1.0000   1.0000   1.0000   1.0000   1.0000   1.0000   1.0000
     0.0000   0.0000   0.0000   0.0000   0.0000   0.0000   0.0000   0.0000
     0.0000   0.0000   0.0000   0.0000   0.0000   0.0000   0.0000   0.0000
     0.0000   0.0000   0.0000   0.0000   0.0000   0.0000   0.0000   0.0000
     0.0000   0.0000   0.0000   0.0000   0.0000   0.0000

          k = 0.2500 0.2500 0.0000 ( 18375 PWs)   bands (ev):

   -89.9450 -89.9415 -89.9415 -89.9394 -89.9368 -89.9367 -89.9367 -89.9364
   -89.9363 -89.9360 -89.9356 -89.9356 -89.9343 -89.9343 -89.9333 -89.9332
   -53.4592 -53.4592 -53.4592 -53.4591 -53.4536 -53.4499 -53.4491 -53.4490
   -53.4461 -53.4461 -53.4299 -53.4299 -53.4290 -53.4290 -53.4274 -53.4221
   -53.4221 -53.4143 -53.4143 -53.4074 -53.4033 -53.4033 -53.3997 -53.3997
   -53.3942 -53.3922 -53.3922 -53.3902 -53.3901 -53.3901 -53.3873 -53.3872
   -53.3842 -53.3841 -53.3834 -53.3801 -53.3800 -53.3794 -53.3793 -53.3788
   -53.3737 -53.3732 -53.3732 -53.3713 -53.3710 -53.3642 -53.3641 -53.3639
    -3.9807  -3.6975  -3.5379  -3.5179  -3.5029  -3.4837  -3.4836  -3.4140
    -3.4140  -3.3816  -3.3816  -3.3631  -3.3631  -3.3437  -3.3437  -3.2410
    -3.2410  -3.2213  -3.2213  -3.0702  -3.0702  -3.0210  -3.0210  -2.9638
    -2.9638  -2.9233  -2.9231  -2.7368  -2.7368  -2.5952  -2.5157  -2.5157
    -2.4820  -2.4820  -2.4756  -2.4756  -2.3926  -2.2999  -2.2999  -2.2949
    -2.2791  -2.2791  -2.2445  -2.2336  -2.2208  -2.2208  -2.1131  -2.1131
    -2.0889  -2.0226  -1.9574  -1.9574  -1.8998  -1.8998  -1.8073  -1.8073
    -1.7386  -1.6874  -1.6874  -1.6449  -1.6449  -1.6015  -1.6015  -1.5849
    -1.5848  -1.5844  -1.5843  -1.5726  -1.4890  -1.4883  -1.4883  -1.4448
    -1.4187  -1.4187  -1.3460  -1.3460  -1.3113  -1.2967  -1.2530  -1.1509
    -1.1509  -1.0974  -1.0973  -0.4092   0.4926   0.8338   0.8338   1.6471
     1.6471   2.2618   2.2618   2.6153   3.4986   3.9646   3.9646   4.2814
     4.2814   4.9621   4.9621   4.9936   5.1053   5.1053   5.8713   6.0181
     6.0181   6.0192   6.3903   7.1652   7.1652   7.2441   7.2441   7.4065
     7.4065   7.4076   7.4076   7.8983   8.4420   8.7047

     occupation numbers 
     1.0000   1.0000   1.0000   1.0000   1.0000   1.0000   1.0000   1.0000
     1.0000   1.0000   1.0000   1.0000   1.0000   1.0000   1.0000   1.0000
     1.0000   1.0000   1.0000   1.0000   1.0000   1.0000   1.0000   1.0000
     1.0000   1.0000   1.0000   1.0000   1.0000   1.0000   1.0000   1.0000
     1.0000   1.0000   1.0000   1.0000   1.0000   1.0000   1.0000   1.0000
     1.0000   1.0000   1.0000   1.0000   1.0000   1.0000   1.0000   1.0000
     1.0000   1.0000   1.0000   1.0000   1.0000   1.0000   1.0000   1.0000
     1.0000   1.0000   1.0000   1.0000   1.0000   1.0000   1.0000   1.0000
     1.0000   1.0000   1.0000   1.0000   1.0000   1.0000   1.0000   1.0000
     1.0000   1.0000   1.0000   1.0000   1.0000   1.0000   1.0000   1.0000
     1.0000   1.0000   1.0000   1.0000   1.0000   1.0000   1.0000   1.0000
     1.0000   1.0000   1.0000   1.0000   1.0000   1.0000   1.0000   1.0000
     1.0000   1.0000   1.0000   1.0000   1.0000   1.0000   1.0000   1.0000
     1.0000   1.0000   1.0000   1.0000   1.0000   1.0000   1.0000   1.0000
     1.0000   1.0000   1.0000   1.0000   1.0000   1.0000   1.0000   1.0000
     1.0000   1.0000   1.0000   1.0000   1.0000   1.0000   1.0000   1.0000
     1.0000   1.0000   1.0000   1.0000   1.0000   1.0000   1.0000   1.0000
     1.0000   1.0000   1.0000   1.0000   1.0000   1.0000   1.0000   1.0000
     1.0000   1.0000   1.0000   1.0000   1.0000   1.0000   1.0000   0.2503
     0.2503   0.0000   0.0000   0.0000   0.0000   0.0000   0.0000   0.0000
     0.0000   0.0000   0.0000   0.0000   0.0000   0.0000   0.0000   0.0000
     0.0000   0.0000   0.0000   0.0000   0.0000   0.0000   0.0000   0.0000
     0.0000   0.0000   0.0000   0.0000   0.0000   0.0000

          k = 0.2500-0.5000 0.0000 ( 18370 PWs)   bands (ev):

   -89.9437 -89.9435 -89.9408 -89.9406 -89.9367 -89.9365 -89.9364 -89.9362
   -89.9358 -89.9356 -89.9352 -89.9350 -89.9347 -89.9346 -89.9338 -89.9336
   -53.4562 -53.4562 -53.4554 -53.4553 -53.4546 -53.4545 -53.4540 -53.4539
   -53.4427 -53.4426 -53.4393 -53.4392 -53.4275 -53.4274 -53.4201 -53.4200
   -53.4181 -53.4181 -53.4143 -53.4142 -53.3999 -53.3999 -53.3953 -53.3953
   -53.3935 -53.3934 -53.3931 -53.3930 -53.3891 -53.3891 -53.3866 -53.3864
   -53.3859 -53.3858 -53.3857 -53.3856 -53.3791 -53.3790 -53.3759 -53.3757
   -53.3745 -53.3745 -53.3728 -53.3728 -53.3675 -53.3673 -53.3636 -53.3634
    -3.6744  -3.6743  -3.5876  -3.5875  -3.4945  -3.4945  -3.4638  -3.4637
    -3.3471  -3.3471  -3.3247  -3.3246  -3.3109  -3.3108  -3.3104  -3.3103
    -3.2717  -3.2716  -3.2460  -3.2459  -3.2402  -3.2402  -2.9553  -2.9553
    -2.9132  -2.9131  -2.8248  -2.8246  -2.7010  -2.7009  -2.4975  -2.4974
    -2.4837  -2.4837  -2.4321  -2.4321  -2.3851  -2.3851  -2.3555  -2.3555
    -2.2657  -2.2657  -2.2175  -2.2173  -2.2123  -2.2122  -2.1239  -2.1238
    -1.9428  -1.9427  -1.9154  -1.9153  -1.8740  -1.8739  -1.7818  -1.7818
    -1.7506  -1.7505  -1.6548  -1.6546  -1.6064  -1.6064  -1.5982  -1.5981
    -1.5502  -1.5502  -1.5358  -1.5357  -1.4792  -1.4791  -1.4265  -1.4263
    -1.4116  -1.4115  -1.3993  -1.3993  -1.3800  -1.3800  -1.2496  -1.2496
    -1.2231  -1.2231  -1.0738  -1.0737   0.9260   0.9261   1.4226   1.4227
     2.0027   2.0028   2.4769   2.4770   3.9382   3.9382   4.0901   4.0902
     4.5225   4.5226   5.0141   5.0143   5.3695   5.3696   5.5636   5.5637
     6.4525   6.4525   6.5127   6.5127   6.5983   6.5984   6.7703   6.7704
     7.5544   7.5544   7.7938   7.7938   7.8003   7.8004

     occupation numbers 
     1.0000   1.0000   1.0000   1.0000   1.0000   1.0000   1.0000   1.0000
     1.0000   1.0000   1.0000   1.0000   1.0000   1.0000   1.0000   1.0000
     1.0000   1.0000   1.0000   1.0000   1.0000   1.0000   1.0000   1.0000
     1.0000   1.0000   1.0000   1.0000   1.0000   1.0000   1.0000   1.0000
     1.0000   1.0000   1.0000   1.0000   1.0000   1.0000   1.0000   1.0000
     1.0000   1.0000   1.0000   1.0000   1.0000   1.0000   1.0000   1.0000
     1.0000   1.0000   1.0000   1.0000   1.0000   1.0000   1.0000   1.0000
     1.0000   1.0000   1.0000   1.0000   1.0000   1.0000   1.0000   1.0000
     1.0000   1.0000   1.0000   1.0000   1.0000   1.0000   1.0000   1.0000
     1.0000   1.0000   1.0000   1.0000   1.0000   1.0000   1.0000   1.0000
     1.0000   1.0000   1.0000   1.0000   1.0000   1.0000   1.0000   1.0000
     1.0000   1.0000   1.0000   1.0000   1.0000   1.0000   1.0000   1.0000
     1.0000   1.0000   1.0000   1.0000   1.0000   1.0000   1.0000   1.0000
     1.0000   1.0000   1.0000   1.0000   1.0000   1.0000   1.0000   1.0000
     1.0000   1.0000   1.0000   1.0000   1.0000   1.0000   1.0000   1.0000
     1.0000   1.0000   1.0000   1.0000   1.0000   1.0000   1.0000   1.0000
     1.0000   1.0000   1.0000   1.0000   1.0000   1.0000   1.0000   1.0000
     1.0000   1.0000   1.0000   1.0000   1.0000   1.0000   1.0000   1.0000
     1.0000   1.0000   1.0000   1.0000   1.0000   1.0000   1.0000   1.0000
     0.0000   0.0000   0.0000   0.0000   0.0000   0.0000   0.0000   0.0000
     0.0000   0.0000   0.0000   0.0000   0.0000   0.0000   0.0000   0.0000
     0.0000   0.0000   0.0000   0.0000   0.0000   0.0000   0.0000   0.0000
     0.0000   0.0000   0.0000   0.0000   0.0000   0.0000

          k =-0.5000-0.5000 0.0000 ( 18336 PWs)   bands (ev):

   -89.9426 -89.9424 -89.9424 -89.9422 -89.9362 -89.9360 -89.9360 -89.9359
   -89.9351 -89.9349 -89.9349 -89.9349 -89.9348 -89.9348 -89.9347 -89.9346
   -53.4564 -53.4564 -53.4564 -53.4564 -53.4563 -53.4563 -53.4562 -53.4562
   -53.4313 -53.4312 -53.4312 -53.4312 -53.4312 -53.4312 -53.4312 -53.4311
   -53.4074 -53.4074 -53.4073 -53.4073 -53.4072 -53.4072 -53.4072 -53.4072
   -53.3916 -53.3916 -53.3916 -53.3915 -53.3890 -53.3890 -53.3890 -53.3890
   -53.3817 -53.3816 -53.3816 -53.3816 -53.3815 -53.3815 -53.3814 -53.3813
   -53.3709 -53.3709 -53.3709 -53.3709 -53.3656 -53.3655 -53.3655 -53.3653
    -3.5863  -3.5863  -3.5863  -3.5862  -3.5841  -3.5841  -3.5841  -3.5840
    -3.3093  -3.3093  -3.3093  -3.3092  -3.3092  -3.3092  -3.3091  -3.3091
    -3.0964  -3.0963  -3.0962  -3.0962  -3.0962  -3.0962  -3.0961  -3.0960
    -3.0379  -3.0378  -3.0378  -3.0377  -2.4928  -2.4928  -2.4928  -2.4927
    -2.4730  -2.4730  -2.4730  -2.4730  -2.2381  -2.2381  -2.2381  -2.2381
    -2.1428  -2.1428  -2.1428  -2.1428  -2.1427  -2.1427  -2.1427  -2.1427
    -2.0061  -2.0060  -2.0060  -2.0059  -1.9905  -1.9904  -1.9904  -1.9903
    -1.7313  -1.7313  -1.7313  -1.7312  -1.7312  -1.7312  -1.7311  -1.7311
    -1.5620  -1.5619  -1.5619  -1.5619  -1.4584  -1.4583  -1.4583  -1.4582
    -1.3514  -1.3514  -1.3514  -1.3514  -1.3513  -1.3513  -1.3513  -1.3513
    -1.2370  -1.2370  -1.2370  -1.2370   1.3146   1.3148   1.3148   1.3149
     3.1396   3.1396   3.1396   3.1397   3.1397   3.1397   3.1398   3.1398
     4.6031   4.6032   4.6032   4.6033   6.0043   6.0043   6.0044   6.0044
     6.0044   6.0045   6.0045   6.0045   6.8758   6.8758   6.8758   6.8758
     7.1523   7.1523   7.1523   7.1524   8.1687   8.1688

     occupation numbers 
     1.0000   1.0000   1.0000   1.0000   1.0000   1.0000   1.0000   1.0000
     1.0000   1.0000   1.0000   1.0000   1.0000   1.0000   1.0000   1.0000
     1.0000   1.0000   1.0000   1.0000   1.0000   1.0000   1.0000   1.0000
     1.0000   1.0000   1.0000   1.0000   1.0000   1.0000   1.0000   1.0000
     1.0000   1.0000   1.0000   1.0000   1.0000   1.0000   1.0000   1.0000
     1.0000   1.0000   1.0000   1.0000   1.0000   1.0000   1.0000   1.0000
     1.0000   1.0000   1.0000   1.0000   1.0000   1.0000   1.0000   1.0000
     1.0000   1.0000   1.0000   1.0000   1.0000   1.0000   1.0000   1.0000
     1.0000   1.0000   1.0000   1.0000   1.0000   1.0000   1.0000   1.0000
     1.0000   1.0000   1.0000   1.0000   1.0000   1.0000   1.0000   1.0000
     1.0000   1.0000   1.0000   1.0000   1.0000   1.0000   1.0000   1.0000
     1.0000   1.0000   1.0000   1.0000   1.0000   1.0000   1.0000   1.0000
     1.0000   1.0000   1.0000   1.0000   1.0000   1.0000   1.0000   1.0000
     1.0000   1.0000   1.0000   1.0000   1.0000   1.0000   1.0000   1.0000
     1.0000   1.0000   1.0000   1.0000   1.0000   1.0000   1.0000   1.0000
     1.0000   1.0000   1.0000   1.0000   1.0000   1.0000   1.0000   1.0000
     1.0000   1.0000   1.0000   1.0000   1.0000   1.0000   1.0000   1.0000
     1.0000   1.0000   1.0000   1.0000   1.0000   1.0000   1.0000   1.0000
     1.0000   1.0000   1.0000   1.0000   1.0000   1.0000   1.0000   1.0000
     0.0000   0.0000   0.0000   0.0000   0.0000   0.0000   0.0000   0.0000
     0.0000   0.0000   0.0000   0.0000   0.0000   0.0000   0.0000   0.0000
     0.0000   0.0000   0.0000   0.0000   0.0000   0.0000   0.0000   0.0000
     0.0000   0.0000   0.0000   0.0000   0.0000   0.0000

     the Fermi energy is     1.6277 ev

!    total energy              =   -4729.29147879 Ry
     estimated scf accuracy    <       0.00000005 Ry
     smearing contrib. (-TS)   =      -0.00067670 Ry
     internal energy E=F+TS    =   -4729.29080208 Ry

     The total energy is F=E-TS. E is the sum of the following terms:
     one-electron contribution =  -13410.85435899 Ry
     hartree contribution      =    6690.26393856 Ry
     xc contribution           =    -462.70213091 Ry
     ewald contribution        =    2454.00174926 Ry

     convergence has been achieved in   5 iterations

     negative rho (up, down):  4.490E-03 0.000E+00

     Forces acting on atoms (cartesian axes, Ry/au):

     atom    1 type  1   force =     0.00000000    0.00000000    0.00743490
     atom    2 type  1   force =     0.00000000   -0.00003922   -0.00744045
     atom    3 type  1   force =    -0.00003922    0.00000000   -0.00744045
     atom    4 type  1   force =    -0.00004348   -0.00004348    0.00744378
     atom    5 type  1   force =     0.00000000    0.00000000    0.00742470
     atom    6 type  1   force =     0.00000000    0.00003922   -0.00744045
     atom    7 type  1   force =    -0.00003815    0.00000000   -0.00742819
     atom    8 type  1   force =    -0.00004348    0.00004348    0.00744378
     atom    9 type  1   force =     0.00000000    0.00000000    0.00742470
     atom   10 type  1   force =     0.00000000   -0.00003815   -0.00742819
     atom   11 type  1   force =     0.00003922    0.00000000   -0.00744045
     atom   12 type  1   force =     0.00004348   -0.00004348    0.00744378
     atom   13 type  1   force =     0.00000000    0.00000000    0.00741514
     atom   14 type  1   force =     0.00000000    0.00003815   -0.00742819
     atom   15 type  1   force =     0.00003815    0.00000000   -0.00742819
     atom   16 type  1   force =     0.00004348    0.00004348    0.00744378
     The non-local contrib.  to forces
     atom    1 type  1   force =     0.00000000    0.00000000   -0.20105229
     atom    2 type  1   force =     0.00000000   -0.00000954    0.20107175
     atom    3 type  1   force =    -0.00000954    0.00000000    0.20107175
     atom    4 type  1   force =    -0.00000749   -0.00000749   -0.20104127
     atom    5 type  1   force =     0.00000000    0.00000000   -0.20105168
     atom    6 type  1   force =     0.00000000    0.00000954    0.20107175
     atom    7 type  1   force =    -0.00000620    0.00000000    0.20107351
     atom    8 type  1   force =    -0.00000749    0.00000749   -0.20104127
     atom    9 type  1   force =     0.00000000    0.00000000   -0.20105168
     atom   10 type  1   force =     0.00000000   -0.00000620    0.20107351
     atom   11 type  1   force =     0.00000954    0.00000000    0.20107175
     atom   12 type  1   force =     0.00000749   -0.00000749   -0.20104127
     atom   13 type  1   force =     0.00000000    0.00000000   -0.20105097
     atom   14 type  1   force =     0.00000000    0.00000620    0.20107351
     atom   15 type  1   force =     0.00000620    0.00000000    0.20107351
     atom   16 type  1   force =     0.00000749    0.00000749   -0.20104127
     The ionic contribution  to forces
     atom    1 type  1   force =    -0.00011544   -0.00011544  -97.95338106
     atom    2 type  1   force =    -0.00011544    0.00069531   97.95262976
     atom    3 type  1   force =     0.00069531   -0.00011544   97.95262976
     atom    4 type  1   force =     0.00090525    0.00090525  -97.95204518
     atom    5 type  1   force =    -0.00011544    0.00004484  -97.95291306
     atom    6 type  1   force =    -0.00011544   -0.00062472   97.95257965
     atom    7 type  1   force =     0.00106842    0.00004484   97.95230356
     atom    8 type  1   force =     0.00090525   -0.00083466  -97.95199507
     atom    9 type  1   force =     0.00004484   -0.00011544  -97.95291306
     atom   10 type  1   force =     0.00004484    0.00106842   97.95230356
     atom   11 type  1   force =    -0.00062472   -0.00011544   97.95257965
     atom   12 type  1   force =    -0.00083466    0.00090525  -97.95199507
     atom   13 type  1   force =     0.00004484    0.00004484  -97.95234538
     atom   14 type  1   force =     0.00004484   -0.00099782   97.95225345
     atom   15 type  1   force =    -0.00099782    0.00004484   97.95225345
     atom   16 type  1   force =    -0.00083466   -0.00083466  -97.95194496
     The local contribution  to forces
     atom    1 type  1   force =    -0.00000000   -0.00000000   98.16024446
     atom    2 type  1   force =    -0.00000000    0.00037488  -98.15984597
     atom    3 type  1   force =     0.00037488   -0.00000000  -98.15984597
     atom    4 type  1   force =     0.00015809    0.00015809   98.15898123
     atom    5 type  1   force =    -0.00000000    0.00077674   98.15989065
     atom    6 type  1   force =    -0.00000000    0.00117861  -98.15984597
     atom    7 type  1   force =    -0.00000318    0.00077674  -98.15962401
     atom    8 type  1   force =     0.00015809    0.00139540   98.15898123
     atom    9 type  1   force =     0.00077674   -0.00000000   98.15989065
     atom   10 type  1   force =     0.00077674   -0.00000318  -98.15962401
     atom   11 type  1   force =     0.00117861   -0.00000000  -98.15984597
     atom   12 type  1   force =     0.00139540    0.00015809   98.15898123
     atom   13 type  1   force =     0.00077675    0.00077675   98.15944374
     atom   14 type  1   force =     0.00077674    0.00155667  -98.15962401
     atom   15 type  1   force =     0.00155667    0.00077674  -98.15962401
     atom   16 type  1   force =     0.00139540    0.00139540   98.15898122
     The core correction contribution to forces
     atom    1 type  1   force =    -0.00000000   -0.00000000    0.00145999
     atom    2 type  1   force =    -0.00000000    0.00000037   -0.00145930
[...]
    -2.1979  -2.1979  -2.1979  -2.1979  -2.1979  -2.1979  -2.1979  -2.1978
    -2.1102  -2.1101  -2.1101  -2.1100  -2.0032  -2.0031  -2.0031  -2.0031
    -1.7237  -1.7237  -1.7237  -1.7237  -1.7236  -1.7236  -1.7236  -1.7236
    -1.5861  -1.5860  -1.5860  -1.5860  -1.4660  -1.4659  -1.4659  -1.4658
    -1.3848  -1.3848  -1.3848  -1.3848  -1.3848  -1.3847  -1.3847  -1.3847
    -1.2366  -1.2365  -1.2365  -1.2365   1.3610   1.3611   1.3611   1.3612
     3.0860   3.0860   3.0860   3.0861   3.0861   3.0861   3.0862   3.0862
     4.6563   4.6564   4.6564   4.6565   6.0553   6.0553   6.0554   6.0554
     6.0554   6.0555   6.0555   6.0555   6.8926   6.8927   6.8927   6.8927
     7.1750   7.1751   7.1751   7.1751   8.1205   8.1206

     occupation numbers 
     1.0000   1.0000   1.0000   1.0000   1.0000   1.0000   1.0000   1.0000
     1.0000   1.0000   1.0000   1.0000   1.0000   1.0000   1.0000   1.0000
     1.0000   1.0000   1.0000   1.0000   1.0000   1.0000   1.0000   1.0000
     1.0000   1.0000   1.0000   1.0000   1.0000   1.0000   1.0000   1.0000
     1.0000   1.0000   1.0000   1.0000   1.0000   1.0000   1.0000   1.0000
     1.0000   1.0000   1.0000   1.0000   1.0000   1.0000   1.0000   1.0000
     1.0000   1.0000   1.0000   1.0000   1.0000   1.0000   1.0000   1.0000
     1.0000   1.0000   1.0000   1.0000   1.0000   1.0000   1.0000   1.0000
     1.0000   1.0000   1.0000   1.0000   1.0000   1.0000   1.0000   1.0000
     1.0000   1.0000   1.0000   1.0000   1.0000   1.0000   1.0000   1.0000
     1.0000   1.0000   1.0000   1.0000   1.0000   1.0000   1.0000   1.0000
     1.0000   1.0000   1.0000   1.0000   1.0000   1.0000   1.0000   1.0000
     1.0000   1.0000   1.0000   1.0000   1.0000   1.0000   1.0000   1.0000
     1.0000   1.0000   1.0000   1.0000   1.0000   1.0000   1.0000   1.0000
     1.0000   1.0000   1.0000   1.0000   1.0000   1.0000   1.0000   1.0000
     1.0000   1.0000   1.0000   1.0000   1.0000   1.0000   1.0000   1.0000
     1.0000   1.0000   1.0000   1.0000   1.0000   1.0000   1.0000   1.0000
     1.0000   1.0000   1.0000   1.0000   1.0000   1.0000   1.0000   1.0000
     1.0000   1.0000   1.0000   1.0000   1.0000   1.0000   1.0000   1.0000
     0.0000   0.0000   0.0000   0.0000   0.0000   0.0000   0.0000   0.0000
     0.0000   0.0000   0.0000   0.0000   0.0000   0.0000   0.0000   0.0000
     0.0000   0.0000   0.0000   0.0000   0.0000   0.0000   0.0000   0.0000
     0.0000   0.0000   0.0000   0.0000   0.0000   0.0000

     the Fermi energy is     1.6810 ev

!    total energy              =   -4729.29525819 Ry
     estimated scf accuracy    <          5.8E-09 Ry
     smearing contrib. (-TS)   =      -0.00067703 Ry
     internal energy E=F+TS    =   -4729.29458117 Ry

     The total energy is F=E-TS. E is the sum of the following terms:
     one-electron contribution =  -13601.69473934 Ry
     hartree contribution      =    6785.14384529 Ry
     xc contribution           =    -462.79585022 Ry
     ewald contribution        =    2550.05216311 Ry

     convergence has been achieved in   4 iterations

     negative rho (up, down):  4.502E-03 0.000E+00

     Forces acting on atoms (cartesian axes, Ry/au):

     atom    1 type  1   force =     0.00000000    0.00000000   -0.00001370
     atom    2 type  1   force =     0.00000000   -0.00000061    0.00002202
     atom    3 type  1   force =    -0.00000061    0.00000000    0.00002202
     atom    4 type  1   force =    -0.00000096   -0.00000096   -0.00003030
     atom    5 type  1   force =     0.00000000    0.00000000   -0.00001582
     atom    6 type  1   force =     0.00000000    0.00000061    0.00002202
     atom    7 type  1   force =    -0.00000071    0.00000000    0.00002425
     atom    8 type  1   force =    -0.00000096    0.00000096   -0.00003030
     atom    9 type  1   force =     0.00000000    0.00000000   -0.00001582
     atom   10 type  1   force =     0.00000000   -0.00000071    0.00002425
     atom   11 type  1   force =     0.00000061    0.00000000    0.00002202
     atom   12 type  1   force =     0.00000096   -0.00000096   -0.00003030
     atom   13 type  1   force =     0.00000000    0.00000000   -0.00001853
     atom   14 type  1   force =     0.00000000    0.00000071    0.00002425
     atom   15 type  1   force =     0.00000071    0.00000000    0.00002425
     atom   16 type  1   force =     0.00000096    0.00000096   -0.00003030
     The non-local contrib.  to forces
     atom    1 type  1   force =     0.00000000    0.00000000   -0.20038244
     atom    2 type  1   force =     0.00000000    0.00000133    0.20037903
     atom    3 type  1   force =     0.00000133    0.00000000    0.20037903
     atom    4 type  1   force =     0.00000086    0.00000086   -0.20038198
     atom    5 type  1   force =     0.00000000    0.00000000   -0.20038504
     atom    6 type  1   force =     0.00000000   -0.00000133    0.20037903
     atom    7 type  1   force =     0.00000008    0.00000000    0.20038441
     atom    8 type  1   force =     0.00000086   -0.00000086   -0.20038198
     atom    9 type  1   force =     0.00000000    0.00000000   -0.20038504
     atom   10 type  1   force =     0.00000000    0.00000008    0.20038441
     atom   11 type  1   force =    -0.00000133    0.00000000    0.20037903
     atom   12 type  1   force =    -0.00000086    0.00000086   -0.20038198
     atom   13 type  1   force =     0.00000000    0.00000000   -0.20038681
     atom   14 type  1   force =     0.00000000   -0.00000008    0.20038441
     atom   15 type  1   force =    -0.00000008    0.00000000    0.20038441
     atom   16 type  1   force =    -0.00000086   -0.00000086   -0.20038198
     The ionic contribution  to forces
     atom    1 type  1   force =    -0.00011841   -0.00011841  -98.50352515
     atom    2 type  1   force =    -0.00011841    0.00050711   98.49979023
     atom    3 type  1   force =     0.00050711   -0.00011841   98.49979023
     atom    4 type  1   force =     0.00047864    0.00047864  -98.49692849
     atom    5 type  1   force =    -0.00011841    0.00004531  -98.50205319
     atom    6 type  1   force =    -0.00011841   -0.00043401   98.49973783
     atom    7 type  1   force =     0.00037895    0.00004531   98.49925206
     atom    8 type  1   force =     0.00047864   -0.00040554  -98.49687610
     atom    9 type  1   force =     0.00004531   -0.00011841  -98.50205319
     atom   10 type  1   force =     0.00004531    0.00037895   98.49925206
     atom   11 type  1   force =    -0.00043401   -0.00011841   98.49973783
     atom   12 type  1   force =    -0.00040554    0.00047864  -98.49687610
     atom   13 type  1   force =     0.00004531    0.00004531  -98.50082367
     atom   14 type  1   force =     0.00004531   -0.00030585   98.49919967
     atom   15 type  1   force =    -0.00030585    0.00004531   98.49919967
     atom   16 type  1   force =    -0.00040554   -0.00040554  -98.49682370
     The local contribution  to forces
     atom    1 type  1   force =    -0.00000000   -0.00000000   98.70258076
     atom    2 type  1   force =    -0.00000000    0.00031934  -98.69868175
     atom    3 type  1   force =     0.00031934    0.00000000  -98.69868175
     atom    4 type  1   force =     0.00034763    0.00034763   98.69592757
     atom    5 type  1   force =    -0.00000000    0.00077526   98.70111994
     atom    6 type  1   force =    -0.00000000    0.00123119  -98.69868175
     atom    7 type  1   force =     0.00044707    0.00077526  -98.69815454
     atom    8 type  1   force =     0.00034763    0.00120290   98.69592757
     atom    9 type  1   force =     0.00077526   -0.00000000   98.70111994
     atom   10 type  1   force =     0.00077526    0.00044707  -98.69815454
     atom   11 type  1   force =     0.00123119    0.00000000  -98.69868175
     atom   12 type  1   force =     0.00120290    0.00034763   98.69592757
     atom   13 type  1   force =     0.00077526    0.00077526   98.69989846
     atom   14 type  1   force =     0.00077526    0.00110346  -98.69815454
     atom   15 type  1   force =     0.00110346    0.00077526  -98.69815454
     atom   16 type  1   force =     0.00120290    0.00120290   98.69592757
     The core correction contribution to forces
     atom    1 type  1   force =    -0.00000000   -0.00000000    0.00145609
     atom    2 type  1   force =    -0.00000000    0.00000049   -0.00145600
     atom    3 type  1   force =     0.00000049   -0.00000000   -0.00145600
     atom    4 type  1   force =     0.00000049    0.00000049    0.00145529
     atom    5 type  1   force =    -0.00000000    0.00000050    0.00145608
     atom    6 type  1   force =    -0.00000000    0.00000052   -0.00145600
     atom    7 type  1   force =     0.00000050    0.00000050   -0.00145601
     atom    8 type  1   force =     0.00000049    0.00000051    0.00145529
     atom    9 type  1   force =     0.00000050   -0.00000000    0.00145608
     atom   10 type  1   force =     0.00000050    0.00000050   -0.00145601
     atom   11 type  1   force =     0.00000052   -0.00000000   -0.00145600
     atom   12 type  1   force =     0.00000051    0.00000049    0.00145529
     atom   13 type  1   force =     0.00000050    0.00000050    0.00145607
     atom   14 type  1   force =     0.00000050    0.00000051   -0.00145601
     atom   15 type  1   force =     0.00000051    0.00000050   -0.00145601
     atom   16 type  1   force =     0.00000051    0.00000051    0.00145529
     The Hubbard contrib.    to forces
     atom    1 type  1   force =     0.00000000    0.00000000    0.00000000
     atom    2 type  1   force =     0.00000000    0.00000000    0.00000000
     atom    3 type  1   force =     0.00000000    0.00000000    0.00000000
     atom    4 type  1   force =     0.00000000    0.00000000    0.00000000
     atom    5 type  1   force =     0.00000000    0.00000000    0.00000000
     atom    6 type  1   force =     0.00000000    0.00000000    0.00000000
     atom    7 type  1   force =     0.00000000    0.00000000    0.00000000
     atom    8 type  1   force =     0.00000000    0.00000000    0.00000000
     atom    9 type  1   force =     0.00000000    0.00000000    0.00000000
     atom   10 type  1   force =     0.00000000    0.00000000    0.00000000
     atom   11 type  1   force =     0.00000000    0.00000000    0.00000000
     atom   12 type  1   force =     0.00000000    0.00000000    0.00000000
     atom   13 type  1   force =     0.00000000    0.00000000    0.00000000
     atom   14 type  1   force =     0.00000000    0.00000000    0.00000000
     atom   15 type  1   force =     0.00000000    0.00000000    0.00000000
     atom   16 type  1   force =     0.00000000    0.00000000    0.00000000
     The SCF correction term to forces
     atom    1 type  1   force =    -0.00000000   -0.00000000   -0.00015327
     atom    2 type  1   force =    -0.00000000   -0.00001658    0.00000640
     atom    3 type  1   force =    -0.00001658   -0.00000000    0.00000640
     atom    4 type  1   force =    -0.00001626   -0.00001626   -0.00016540
     atom    5 type  1   force =    -0.00000000   -0.00000000   -0.00016392
     atom    6 type  1   force =    -0.00000000    0.00001658    0.00000639
     atom    7 type  1   force =    -0.00001499   -0.00000000    0.00001421
     atom    8 type  1   force =    -0.00001626    0.00001626   -0.00016539
     atom    9 type  1   force =    -0.00000000   -0.00000000   -0.00016392
     atom   10 type  1   force =    -0.00000000   -0.00001499    0.00001421
     atom   11 type  1   force =     0.00001658   -0.00000000    0.00000639
     atom   12 type  1   force =     0.00001626   -0.00001626   -0.00016539
     atom   13 type  1   force =    -0.00000000   -0.00000000   -0.00017290
     atom   14 type  1   force =    -0.00000000    0.00001499    0.00001421
     atom   15 type  1   force =     0.00001499   -0.00000000    0.00001421
     atom   16 type  1   force =     0.00001626    0.00001626   -0.00016538

     Total force =     0.000095     Total SCF correction =     0.000471
     SCF correction compared to forces is large: reduce conv_thr to get better values


     Computing stress (Cartesian axis) and pressure


     negative rho (up, down):  4.502E-03 0.000E+00
          total   stress  (Ry/bohr**3)                   (kbar)     P=      -39.79
  -0.00030642   0.00000000   0.00000000          -45.08        0.00        0.00
   0.00000000  -0.00030642   0.00000000            0.00      -45.08        0.00
   0.00000000   0.00000000  -0.00019864            0.00        0.00      -29.22

     kinetic stress (kbar)  15878.26      0.00      0.00
                                0.00  15878.26      0.00
                                0.00      0.00  15954.70

     local   stress (kbar)-250894.24     -0.00      0.00
                               -0.00-250894.24      0.00
                                0.00      0.00 250614.27

     nonloc. stress (kbar)   1858.31      0.00      0.00
                                0.00   1858.31      0.00
                                0.00      0.00   1839.37

     hartree stress (kbar) 131812.63      0.00      0.00
                                0.00 131812.63      0.00
                                0.00      0.00-112774.14

     exc-cor stress (kbar)  -2862.87     -0.00      0.00
                               -0.00  -2862.87      0.00
                                0.00      0.00  -2868.66

     corecor stress (kbar)   -387.77      0.00      0.00
                                0.00   -387.77      0.00
                                0.00      0.00   -387.72

     ewald   stress (kbar) 104550.61      0.00     -0.00
                                0.00 104550.61     -0.00
                               -0.00     -0.00-152407.04

     hubbard stress (kbar)      0.00      0.00      0.00
                                0.00      0.00      0.00
                                0.00      0.00      0.00

     DFT-D   stress (kbar)      0.00      0.00      0.00
                                0.00      0.00      0.00
                                0.00      0.00      0.00

     XDM     stress (kbar)      0.00      0.00      0.00
                                0.00      0.00      0.00
                                0.00      0.00      0.00

     dft-nl  stress (kbar)      0.00      0.00      0.00
                                0.00      0.00      0.00
                                0.00      0.00      0.00

     TS-vdW  stress (kbar)      0.00      0.00      0.00
                                0.00      0.00      0.00
                                0.00      0.00      0.00


     Energy error            =      3.5E-07
     Gradient error          =      3.0E-05

     bfgs converged in   7 scf cycles and   6 bfgs steps
     (criteria: energy <  1.0E-04 Ry, force <  1.0E-03 Ry/Bohr)

     End of BFGS Geometry Optimization

     Final energy   =   -4729.2952581932 Ry

     File ./surface.bfgs deleted, as requested
Begin final coordinates

ATOMIC_POSITIONS (angstrom)
Ag            0.0000000000        0.0000000000        0.0368893309
Ag            0.0000000000        2.0802629848        2.0433271874
Ag            2.0802629848        0.0000000000        2.0433271874
Ag            2.0802669684        2.0802669684        0.0369922284
Ag            0.0000000000        4.1605480000        0.0369112543
Ag            0.0000000000        6.2408330152        2.0433271874
Ag            2.0802646378        4.1605480000        2.0433178119
Ag            2.0802669684        6.2408290316        0.0369922284
Ag            4.1605480000        0.0000000000        0.0369112543
Ag            4.1605480000        2.0802646378        2.0433178119
Ag            6.2408330152        0.0000000000        2.0433271874
Ag            6.2408290316        2.0802669684        0.0369922284
Ag            4.1605480000        4.1605480000        0.0369312498
Ag            4.1605480000        6.2408313622        2.0433178119
Ag            6.2408313622        4.1605480000        2.0433178119
Ag            6.2408290316        6.2408290316        0.0369922284
End final coordinates



     Writing output data file ./surface.save/

     init_run     :      1.74s CPU      1.88s WALL (       1 calls)
     electrons    :    154.89s CPU    165.67s WALL (       7 calls)
     update_pot   :      1.64s CPU      1.66s WALL (       6 calls)
     forces       :      6.57s CPU      7.14s WALL (       7 calls)
     stress       :     25.81s CPU     26.59s WALL (       7 calls)

     Called by init_run:
     wfcinit      :      0.96s CPU      1.00s WALL (       1 calls)
     wfcinit:atom :      0.00s CPU      0.00s WALL (       6 calls)
     wfcinit:wfcr :      0.91s CPU      0.94s WALL (       6 calls)
     potinit      :      0.12s CPU      0.13s WALL (       1 calls)
     hinit0       :      0.18s CPU      0.20s WALL (       1 calls)

     Called by electrons:
     c_bands      :    124.87s CPU    127.38s WALL (      48 calls)
     sum_band     :     22.66s CPU     27.16s WALL (      48 calls)
     v_of_rho     :      1.87s CPU      1.92s WALL (      49 calls)
     v_h          :      0.16s CPU      0.16s WALL (      49 calls)
     v_xc         :      2.20s CPU      2.26s WALL (      63 calls)
     newd         :      6.04s CPU      9.69s WALL (      49 calls)
     mix_rho      :      0.17s CPU      0.17s WALL (      48 calls)

     Called by c_bands:
     init_us_2    :      0.46s CPU      0.48s WALL (     666 calls)
     cegterg      :    121.78s CPU    124.20s WALL (     288 calls)

     Called by sum_band:
     sum_band:wei :      0.02s CPU      0.02s WALL (      48 calls)
     sum_band:loo :     13.41s CPU     13.67s WALL (      48 calls)
     sum_band:buf :      0.12s CPU      0.14s WALL (     288 calls)
     sum_band:ini :      0.21s CPU      0.21s WALL (     288 calls)
     sum_band:cal :      4.19s CPU      4.22s WALL (     288 calls)
     sum_band:bec :      0.12s CPU      0.12s WALL (     288 calls)
     addusdens    :      3.97s CPU      8.17s WALL (      48 calls)
     addusd:skk   :      0.06s CPU      0.09s WALL (      48 calls)
     addusd:dgemm :      1.33s CPU      5.17s WALL (      48 calls)
     addusd:qvan2 :      2.22s CPU      2.24s WALL (      48 calls)

     Called by *egterg:
     cdiaghg      :     19.76s CPU     19.91s WALL (     979 calls)
     cegterg:over :     12.79s CPU     12.89s WALL (     763 calls)
     cegterg:upda :      7.71s CPU      7.86s WALL (     763 calls)
     cegterg:last :     18.27s CPU     18.40s WALL (     589 calls)
     cdiaghg:chol :      0.94s CPU      0.96s WALL (     979 calls)
     cdiaghg:inve :      0.98s CPU      0.99s WALL (     979 calls)
     cdiaghg:para :      2.86s CPU      2.88s WALL (    1958 calls)
     h_psi        :     53.15s CPU     54.46s WALL (    1057 calls)
     s_psi        :      4.97s CPU      5.02s WALL (    1057 calls)
     g_psi        :      0.14s CPU      0.14s WALL (     763 calls)

     Called by h_psi:
     h_psi:calbec :     11.18s CPU     11.26s WALL (    1057 calls)
     vloc_psi     :     36.50s CPU     37.48s WALL (    1057 calls)
     add_vuspsi   :      5.27s CPU      5.37s WALL (    1057 calls)

     General routines
     calbec       :     19.82s CPU     19.97s WALL (    1555 calls)
     fft          :      2.08s CPU      2.12s WALL (     810 calls)
     ffts         :      0.06s CPU      0.06s WALL (      97 calls)
     fftw         :     42.26s CPU     43.37s WALL (  302802 calls)
     interpolate  :      0.15s CPU      0.15s WALL (      49 calls)

     Parallel routines
     fft_scatt_xy :      3.12s CPU      3.20s WALL (  303709 calls)
     fft_scatt_yz :     25.09s CPU     25.72s WALL (  303709 calls)

     PWSCF        :   3m11.98s CPU   3m26.45s WALL


   This run was terminated on:   0:28:52   6Dec2021            

=------------------------------------------------------------------------------=
   JOB DONE.
=------------------------------------------------------------------------------=
