
     Program PWSCF v.6.7MaX starts on 10Dec2021 at  3:54:12 

     This program is part of the open-source Quantum ESPRESSO suite
     for quantum simulation of materials; please cite
         "P. Giannozzi et al., J. Phys.:Condens. Matter 21 395502 (2009);
         "P. Giannozzi et al., J. Phys.:Condens. Matter 29 465901 (2017);
          URL http://www.quantum-espresso.org", 
     in publications or presentations arising from this work. More details at
     http://www.quantum-espresso.org/quote

     Parallel version (MPI), running on    16 processors

     MPI processes distributed on     1 nodes
     R & G space division:  proc/nbgrp/npool/nimage =      16
     Reading input from au_surface.100.qe.7656471.1_1_3.in

     Current dimensions of program PWSCF are:
     Max number of different atomic species (ntypx) = 10
     Max number of k-points (npk) =  40000
     Max angular momentum in pseudopotentials (lmaxx) =  3

     Subspace diagonalization in iterative solution of the eigenvalue problem:
     one sub-group per band group will be used
     scalapack distributed-memory algorithm (size of sub-group:  4*  4 procs)

     Found symmetry operation: I + ( -0.5000 -0.5000  0.0000)
     This is a supercell, fractional translations are disabled

     Parallelization info
     --------------------
     sticks:   dense  smooth     PW     G-vecs:    dense   smooth      PW
     Min          92      37     11                14494     3671     613
     Max          93      38     12                14517     3692     636
     Sum        1481     593    177               232091    58829    9857



     bravais-lattice index     =            8
     lattice parameter (alat)  =       7.8826  a.u.
     unit-cell volume          =    2643.5500 (a.u.)^3
     number of atoms/cell      =           12
     number of atomic types    =            1
     number of electrons       =       132.00
     number of Kohn-Sham states=           79
     kinetic-energy cutoff     =      30.0000  Ry
     charge density cutoff     =     300.0000  Ry
     scf convergence threshold =      1.0E-06
     mixing beta               =       0.3000
     number of iterations used =            8  plain     mixing
     energy convergence thresh.=      1.0E-04
     force convergence thresh. =      1.0E-03
     Exchange-correlation= SLA  PW   PBE  PBE
                           (   1   4   3   4   0   0   0)
     nstep                     =           50


     celldm(1)=   7.882596  celldm(2)=   1.000000  celldm(3)=   5.397340
     celldm(4)=   0.000000  celldm(5)=   0.000000  celldm(6)=   0.000000

     crystal axes: (cart. coord. in units of alat)
               a(1) = (   1.000000   0.000000   0.000000 )  
               a(2) = (   0.000000   1.000000   0.000000 )  
               a(3) = (   0.000000   0.000000   5.397340 )  

     reciprocal axes: (cart. coord. in units 2 pi/alat)
               b(1) = (  1.000000  0.000000  0.000000 )  
               b(2) = (  0.000000  1.000000  0.000000 )  
               b(3) = (  0.000000  0.000000  0.185276 )  


     PseudoPot. # 1 for Au read from file:
     /expanse/lustre/projects/csd622/tpascal/nano110/qe/pseudo/au_pbe_v1.uspp.F.UPF
     MD5 check sum: 9d7f43293ad2c663164586bc4b293ffc
     Pseudo is Ultrasoft + core correction, Zval = 11.0
     Generated by new atomic code, or converted to UPF format
     Using radial grid of  985 points,  7 beta functions with: 
                l(1) =   0
                l(2) =   0
                l(3) =   1
                l(4) =   1
                l(5) =   2
                l(6) =   2
                l(7) =   3
     Q(r) pseudized with  6 coefficients,  rinner =    1.900   1.900   1.900
                                                       1.900   1.900   1.900
                                                       1.900

     atomic species   valence    mass     pseudopotential
        Au            11.00   196.96655     Au( 1.00)

      8 Sym. Ops. (no inversion) found


                                    s                        frac. trans.

      isym =  1     identity                                     

 cryst.   s( 1) = (     1          0          0      )
                  (     0          1          0      )
                  (     0          0          1      )

 cart.    s( 1) = (  1.0000000  0.0000000  0.0000000 )
                  (  0.0000000  1.0000000  0.0000000 )
                  (  0.0000000  0.0000000  1.0000000 )


      isym =  2     180 deg rotation - cart. axis [0,0,1]        

 cryst.   s( 2) = (    -1          0          0      )
                  (     0         -1          0      )
                  (     0          0          1      )

 cart.    s( 2) = ( -1.0000000  0.0000000  0.0000000 )
                  (  0.0000000 -1.0000000  0.0000000 )
                  (  0.0000000  0.0000000  1.0000000 )


      isym =  3      90 deg rotation - cart. axis [0,0,-1]       

 cryst.   s( 3) = (     0         -1          0      )
                  (     1          0          0      )
                  (     0          0          1      )

 cart.    s( 3) = (  0.0000000  1.0000000  0.0000000 )
                  ( -1.0000000  0.0000000  0.0000000 )
                  (  0.0000000  0.0000000  1.0000000 )


      isym =  4      90 deg rotation - cart. axis [0,0,1]        

 cryst.   s( 4) = (     0          1          0      )
                  (    -1          0          0      )
                  (     0          0          1      )

 cart.    s( 4) = (  0.0000000 -1.0000000  0.0000000 )
                  (  1.0000000  0.0000000  0.0000000 )
                  (  0.0000000  0.0000000  1.0000000 )


      isym =  5     inv. 180 deg rotation - cart. axis [0,1,0]   

 cryst.   s( 5) = (     1          0          0      )
                  (     0         -1          0      )
                  (     0          0          1      )

 cart.    s( 5) = (  1.0000000  0.0000000  0.0000000 )
                  (  0.0000000 -1.0000000  0.0000000 )
                  (  0.0000000  0.0000000  1.0000000 )


      isym =  6     inv. 180 deg rotation - cart. axis [1,0,0]   

 cryst.   s( 6) = (    -1          0          0      )
                  (     0          1          0      )
                  (     0          0          1      )

 cart.    s( 6) = ( -1.0000000  0.0000000  0.0000000 )
                  (  0.0000000  1.0000000  0.0000000 )
                  (  0.0000000  0.0000000  1.0000000 )


      isym =  7     inv. 180 deg rotation - cart. axis [1,1,0]   

 cryst.   s( 7) = (     0         -1          0      )
                  (    -1          0          0      )
                  (     0          0          1      )

 cart.    s( 7) = (  0.0000000 -1.0000000  0.0000000 )
                  ( -1.0000000  0.0000000  0.0000000 )
                  (  0.0000000  0.0000000  1.0000000 )


      isym =  8     inv. 180 deg rotation - cart. axis [1,-1,0]  

 cryst.   s( 8) = (     0          1          0      )
                  (     1          0          0      )
                  (     0          0          1      )

 cart.    s( 8) = (  0.0000000  1.0000000  0.0000000 )
                  (  1.0000000  0.0000000  0.0000000 )
                  (  0.0000000  0.0000000  1.0000000 )


     point group C_4v (4mm) 
     there are  5 classes
     the character table:

       E     2C4   C2    2s_v  2s_d 
A_1    1.00  1.00  1.00  1.00  1.00
A_2    1.00  1.00  1.00 -1.00 -1.00
B_1    1.00 -1.00  1.00  1.00 -1.00
B_2    1.00 -1.00  1.00 -1.00  1.00
E      2.00  0.00 -2.00  0.00  0.00

     the symmetry operations in each class and the name of the first element:

     E        1
          identity                                               
     2C4      3    4
           90 deg rotation - cart. axis [0,0,-1]                 
     C2       2
          180 deg rotation - cart. axis [0,0,1]                  
     2s_v     5    6
          inv. 180 deg rotation - cart. axis [0,1,0]             
     2s_d     7    8
          inv. 180 deg rotation - cart. axis [1,1,0]             

   Cartesian axes

     site n.     atom                  positions (alat units)
         1           Au  tau(   1) = (   0.0000000   0.0000000   0.0000000  )
         2           Au  tau(   2) = (   0.0000000   0.0000000   1.0000000  )
         3           Au  tau(   3) = (   0.0000000   0.0000000   2.0000000  )
         4           Au  tau(   4) = (   0.0000000   0.5000000   0.5000000  )
         5           Au  tau(   5) = (   0.0000000   0.5000000   1.5000000  )
         6           Au  tau(   6) = (   0.0000000   0.5000000   2.5000000  )
         7           Au  tau(   7) = (   0.5000000   0.0000000   0.5000000  )
         8           Au  tau(   8) = (   0.5000000   0.0000000   1.5000000  )
         9           Au  tau(   9) = (   0.5000000   0.0000000   2.5000000  )
        10           Au  tau(  10) = (   0.5000000   0.5000000   0.0000000  )
        11           Au  tau(  11) = (   0.5000000   0.5000000   1.0000000  )
        12           Au  tau(  12) = (   0.5000000   0.5000000   2.0000000  )

   Crystallographic axes

     site n.     atom                  positions (cryst. coord.)
         1           Au  tau(   1) = (  0.0000000  0.0000000  0.0000000  )
         2           Au  tau(   2) = (  0.0000000  0.0000000  0.1852765  )
         3           Au  tau(   3) = (  0.0000000  0.0000000  0.3705529  )
         4           Au  tau(   4) = (  0.0000000  0.5000000  0.0926382  )
         5           Au  tau(   5) = (  0.0000000  0.5000000  0.2779147  )
         6           Au  tau(   6) = (  0.0000000  0.5000000  0.4631911  )
         7           Au  tau(   7) = (  0.5000000  0.0000000  0.0926382  )
         8           Au  tau(   8) = (  0.5000000  0.0000000  0.2779147  )
         9           Au  tau(   9) = (  0.5000000  0.0000000  0.4631911  )
        10           Au  tau(  10) = (  0.5000000  0.5000000  0.0000000  )
        11           Au  tau(  11) = (  0.5000000  0.5000000  0.1852765  )
        12           Au  tau(  12) = (  0.5000000  0.5000000  0.3705529  )

     number of k points=     6  Gaussian smearing, width (Ry)=  0.0030
                       cart. coord. in units 2pi/alat
        k(    1) = (   0.0000000   0.0000000   0.0000000), wk =   0.1250000
        k(    2) = (   0.0000000   0.2500000   0.0000000), wk =   0.5000000
        k(    3) = (   0.0000000  -0.5000000   0.0000000), wk =   0.2500000
        k(    4) = (   0.2500000   0.2500000   0.0000000), wk =   0.5000000
        k(    5) = (   0.2500000  -0.5000000   0.0000000), wk =   0.5000000
        k(    6) = (  -0.5000000  -0.5000000   0.0000000), wk =   0.1250000

                       cryst. coord.
        k(    1) = (   0.0000000   0.0000000   0.0000000), wk =   0.1250000
        k(    2) = (   0.0000000   0.2500000   0.0000000), wk =   0.5000000
        k(    3) = (   0.0000000  -0.5000000   0.0000000), wk =   0.2500000
        k(    4) = (   0.2500000   0.2500000   0.0000000), wk =   0.5000000
        k(    5) = (   0.2500000  -0.5000000   0.0000000), wk =   0.5000000
        k(    6) = (  -0.5000000  -0.5000000   0.0000000), wk =   0.1250000

     Dense  grid:   232091 G-vectors     FFT dimensions: (  45,  45, 240)

     Smooth grid:    58829 G-vectors     FFT dimensions: (  27,  27, 150)

     Dynamical RAM for                 wfc:       0.55 MB

     Dynamical RAM for     wfc (w. buffer):       3.86 MB

     Dynamical RAM for           str. fact:       0.22 MB

     Dynamical RAM for           local pot:       0.00 MB

     Dynamical RAM for          nlocal pot:       2.10 MB

     Dynamical RAM for                qrad:       2.60 MB

     Dynamical RAM for          rho,v,vnew:       1.36 MB

     Dynamical RAM for               rhoin:       0.45 MB

     Dynamical RAM for            rho*nmix:       3.54 MB

     Dynamical RAM for           G-vectors:       0.86 MB

     Dynamical RAM for          h,s,v(r/c):       0.07 MB

     Dynamical RAM for          <psi|beta>:       0.36 MB

     Dynamical RAM for                 psi:       1.10 MB

     Dynamical RAM for                hpsi:       1.10 MB

     Dynamical RAM for                spsi:       1.10 MB

     Dynamical RAM for      wfcinit/wfcrot:       1.78 MB

     Dynamical RAM for           addusdens:      80.50 MB

     Dynamical RAM for          addusforce:      85.57 MB

     Dynamical RAM for         addusstress:      83.82 MB

     Estimated static dynamical RAM per process >      16.59 MB

     Estimated max dynamical RAM per process >     102.15 MB

     Estimated total dynamical RAM >       1.60 GB

     Check: negative core charge=   -0.000003

     Initial potential from superposition of free atoms

     starting charge  131.99853, renormalised to  132.00000

     negative rho (up, down):  7.266E-06 0.000E+00
     Starting wfcs are  108 randomized atomic wfcs

     total cpu time spent up to now is        1.2 secs

     Self-consistent Calculation

     iteration #  1     ecut=    30.00 Ry     beta= 0.30
     Davidson diagonalization with overlap
     ethr =  1.00E-02,  avg # of iterations =  3.0

     Threshold (ethr) on eigenvalues was too large:
     Diagonalizing with lowered threshold

     Davidson diagonalization with overlap
     ethr =  5.50E-04,  avg # of iterations =  1.8

     negative rho (up, down):  2.183E-06 0.000E+00

     total cpu time spent up to now is        3.4 secs

     total energy              =   -1379.58750554 Ry
     estimated scf accuracy    <       0.79912730 Ry

     iteration #  2     ecut=    30.00 Ry     beta= 0.30
     Davidson diagonalization with overlap
     ethr =  6.05E-04,  avg # of iterations =  3.0

     negative rho (up, down):  5.267E-06 0.000E+00

     total cpu time spent up to now is        4.7 secs

     total energy              =   -1379.49981091 Ry
     estimated scf accuracy    <       1.48442770 Ry

     iteration #  3     ecut=    30.00 Ry     beta= 0.30
     Davidson diagonalization with overlap
     ethr =  6.05E-04,  avg # of iterations =  5.3

     negative rho (up, down):  6.381E-06 0.000E+00

     total cpu time spent up to now is        6.1 secs

     total energy              =   -1379.60381383 Ry
     estimated scf accuracy    <       1.08430929 Ry

     iteration #  4     ecut=    30.00 Ry     beta= 0.30
     Davidson diagonalization with overlap
     ethr =  6.05E-04,  avg # of iterations =  1.7

     negative rho (up, down):  8.147E-06 0.000E+00

     total cpu time spent up to now is        7.2 secs

     total energy              =   -1379.69127867 Ry
     estimated scf accuracy    <       0.06597620 Ry

     iteration #  5     ecut=    30.00 Ry     beta= 0.30
     Davidson diagonalization with overlap
     ethr =  5.00E-05,  avg # of iterations =  4.7

     negative rho (up, down):  1.016E-05 0.000E+00

     total cpu time spent up to now is        8.6 secs

     total energy              =   -1379.69375736 Ry
     estimated scf accuracy    <       0.01888803 Ry

     iteration #  6     ecut=    30.00 Ry     beta= 0.30
     Davidson diagonalization with overlap
     ethr =  1.43E-05,  avg # of iterations =  5.2

     negative rho (up, down):  1.264E-05 0.000E+00

     total cpu time spent up to now is       10.0 secs

     total energy              =   -1379.68903374 Ry
     estimated scf accuracy    <       0.15142198 Ry

     iteration #  7     ecut=    30.00 Ry     beta= 0.30
     Davidson diagonalization with overlap
     ethr =  1.43E-05,  avg # of iterations =  5.2

     negative rho (up, down):  1.434E-05 0.000E+00

     total cpu time spent up to now is       11.3 secs

     total energy              =   -1379.69468077 Ry
     estimated scf accuracy    <       0.01123876 Ry

     iteration #  8     ecut=    30.00 Ry     beta= 0.30
     Davidson diagonalization with overlap
     ethr =  8.51E-06,  avg # of iterations =  1.3

     negative rho (up, down):  1.514E-05 0.000E+00

     total cpu time spent up to now is       12.5 secs

     total energy              =   -1379.69494697 Ry
     estimated scf accuracy    <       0.00101302 Ry

     iteration #  9     ecut=    30.00 Ry     beta= 0.30
     Davidson diagonalization with overlap
     ethr =  7.67E-07,  avg # of iterations =  4.5

     negative rho (up, down):  1.554E-05 0.000E+00

     total cpu time spent up to now is       13.9 secs

     total energy              =   -1379.69501018 Ry
     estimated scf accuracy    <       0.00015707 Ry

     iteration # 10     ecut=    30.00 Ry     beta= 0.30
     Davidson diagonalization with overlap
     ethr =  1.19E-07,  avg # of iterations =  2.2

     negative rho (up, down):  1.584E-05 0.000E+00

     total cpu time spent up to now is       15.1 secs

     total energy              =   -1379.69502638 Ry
     estimated scf accuracy    <       0.00002790 Ry

     iteration # 11     ecut=    30.00 Ry     beta= 0.30
     Davidson diagonalization with overlap
     ethr =  2.11E-08,  avg # of iterations =  2.0

     negative rho (up, down):  1.609E-05 0.000E+00

     total cpu time spent up to now is       16.4 secs

     total energy              =   -1379.69503109 Ry
     estimated scf accuracy    <       0.00000545 Ry

     iteration # 12     ecut=    30.00 Ry     beta= 0.30
     Davidson diagonalization with overlap
     ethr =  4.13E-09,  avg # of iterations =  3.0

     negative rho (up, down):  1.627E-05 0.000E+00

     total cpu time spent up to now is       17.7 secs

     total energy              =   -1379.69503194 Ry
     estimated scf accuracy    <       0.00000223 Ry

     iteration # 13     ecut=    30.00 Ry     beta= 0.30
     Davidson diagonalization with overlap
     ethr =  1.69E-09,  avg # of iterations =  2.0

     negative rho (up, down):  1.659E-05 0.000E+00

     total cpu time spent up to now is       18.9 secs

     End of self-consistent calculation

          k = 0.0000 0.0000 0.0000 (  7355 PWs)   bands (ev):

    -3.2415  -2.4563  -1.3751  -0.7614  -0.6412  -0.6411  -0.4380  -0.3770
    -0.3770  -0.3428  -0.3405  -0.1748  -0.1747  -0.1333   0.1061   0.1061
     0.3066   0.5285   0.5289   0.7745   0.8522   0.8522   1.1368   1.2893
     1.4440   1.4440   1.7924   1.7924   1.8349   1.8349   2.1724   2.2835
     2.4124   2.4124   2.6046   2.6247   2.7260   2.8229   2.8229   2.8263
     2.8264   2.9244   3.0691   3.0691   3.2023   3.3300   3.3301   3.4895
     3.6328   3.6328   3.6393   3.6393   3.6949   3.6949   3.7492   3.7789
     3.8997   3.9485   3.9485   4.0127   4.0131   4.0182   4.0184   4.4485
     4.4489   5.9613   7.0804   7.5078   7.5078   8.9296   8.9296  10.0378
    10.2586  10.2587  10.6325  10.6325  10.6644  10.6645  10.6653

     occupation numbers 
     1.0000   1.0000   1.0000   1.0000   1.0000   1.0000   1.0000   1.0000
     1.0000   1.0000   1.0000   1.0000   1.0000   1.0000   1.0000   1.0000
     1.0000   1.0000   1.0000   1.0000   1.0000   1.0000   1.0000   1.0000
     1.0000   1.0000   1.0000   1.0000   1.0000   1.0000   1.0000   1.0000
     1.0000   1.0000   1.0000   1.0000   1.0000   1.0000   1.0000   1.0000
     1.0000   1.0000   1.0000   1.0000   1.0000   1.0000   1.0000   1.0000
     1.0000   1.0000   1.0000   1.0000   1.0000   1.0000   1.0000   1.0000
     1.0000   1.0000   1.0000   1.0000   1.0000   1.0000   1.0000   1.0000
     1.0000   0.0000   0.0000   0.0000   0.0000   0.0000   0.0000   0.0000
     0.0000   0.0000   0.0000   0.0000   0.0000   0.0000   0.0000

          k = 0.0000 0.2500 0.0000 (  7338 PWs)   bands (ev):

    -2.5866  -1.8581  -0.8624  -0.4573  -0.3183  -0.2837  -0.1563  -0.1531
    -0.0874   0.0627   0.1229   0.1328   0.1711   0.2269   0.2381   0.2791
     0.5339   0.6734   0.8313   0.8849   0.9178   0.9283   1.0253   1.4683
     1.4957   1.5587   1.5702   1.6131   1.6463   1.6778   1.8144   1.9002
     2.2268   2.3076   2.3310   2.3538   2.3938   2.4679   2.5517   2.6905
     2.7367   2.8333   2.9110   2.9539   3.0097   3.0477   3.1285   3.1979
     3.1993   3.2012   3.2267   3.3979   3.4070   3.4294   3.4593   3.4772
     3.4982   3.5697   3.5962   3.6064   3.8128   3.9331   3.9696   4.0916
     4.6130   5.2781   5.7479   6.8914   7.0768   7.9817   8.5596   9.0869
     9.2460  10.0833  10.3978  10.6116  10.9582  11.9017  12.6333

     occupation numbers 
     1.0000   1.0000   1.0000   1.0000   1.0000   1.0000   1.0000   1.0000
     1.0000   1.0000   1.0000   1.0000   1.0000   1.0000   1.0000   1.0000
     1.0000   1.0000   1.0000   1.0000   1.0000   1.0000   1.0000   1.0000
     1.0000   1.0000   1.0000   1.0000   1.0000   1.0000   1.0000   1.0000
     1.0000   1.0000   1.0000   1.0000   1.0000   1.0000   1.0000   1.0000
     1.0000   1.0000   1.0000   1.0000   1.0000   1.0000   1.0000   1.0000
     1.0000   1.0000   1.0000   1.0000   1.0000   1.0000   1.0000   1.0000
     1.0000   1.0000   1.0000   1.0000   1.0000   1.0000   1.0000   1.0000
     1.0000   1.0000   0.7240   0.0000   0.0000   0.0000   0.0000   0.0000
     0.0000   0.0000   0.0000   0.0000   0.0000   0.0000   0.0000

          k = 0.0000-0.5000 0.0000 (  7362 PWs)   bands (ev):

    -0.9976  -0.9976  -0.4411  -0.4411   0.1304   0.1304   0.3212   0.3212
     0.4088   0.4088   0.4940   0.4940   0.6569   0.6569   0.6721   0.6721
     0.8676   0.8676   0.8924   0.8924   0.9788   0.9788   1.0015   1.0015
     1.2355   1.2355   1.4713   1.4713   1.5554   1.5554   1.7302   1.7302
     2.2619   2.2619   2.2673   2.2673   2.3103   2.3103   2.3215   2.3215
     2.3996   2.3996   2.4323   2.4323   2.5730   2.5730   2.6434   2.6434
     2.6731   2.6731   2.7845   2.7845   2.7852   2.7852   2.9953   2.9953
     3.2547   3.2547   3.5345   3.5345   3.7268   3.7268   3.9072   3.9072
     4.5336   4.5336   5.5897   5.5897   7.0156   7.0156   8.7315   8.7315
    11.0107  11.0108  11.5365  11.5366  12.1792  12.3330  12.3342

     occupation numbers 
     1.0000   1.0000   1.0000   1.0000   1.0000   1.0000   1.0000   1.0000
     1.0000   1.0000   1.0000   1.0000   1.0000   1.0000   1.0000   1.0000
     1.0000   1.0000   1.0000   1.0000   1.0000   1.0000   1.0000   1.0000
     1.0000   1.0000   1.0000   1.0000   1.0000   1.0000   1.0000   1.0000
     1.0000   1.0000   1.0000   1.0000   1.0000   1.0000   1.0000   1.0000
     1.0000   1.0000   1.0000   1.0000   1.0000   1.0000   1.0000   1.0000
     1.0000   1.0000   1.0000   1.0000   1.0000   1.0000   1.0000   1.0000
     1.0000   1.0000   1.0000   1.0000   1.0000   1.0000   1.0000   1.0000
     1.0000   1.0000   1.0000   1.0000   0.0000   0.0000   0.0000   0.0000
     0.0000   0.0000   0.0000   0.0000   0.0000   0.0000   0.0000

          k = 0.2500 0.2500 0.0000 (  7324 PWs)   bands (ev):

    -2.0305  -1.4780  -0.8050  -0.3318  -0.2070  -0.2069  -0.1196  -0.1195
     0.0094   0.0525   0.1256   0.1258   0.4220   0.4884   0.4885   0.7745
     0.8647   0.8648   1.1073   1.1351   1.1354   1.2499   1.3921   1.4507
     1.5152   1.6347   1.6515   1.6893   1.7342   1.7346   1.7348   1.8479
     1.8480   1.8795   1.9496   2.1883   2.2600   2.2601   2.3146   2.3151
     2.4587   2.4591   2.5783   2.6170   2.6208   2.6210   2.9400   2.9437
     3.0384   3.1258   3.1258   3.1843   3.2417   3.4463   3.4464   3.4598
     3.7073   3.7311   3.7312   3.7793   3.8429   3.8430   3.8505   4.2409
     5.8933   6.0703   6.0703   6.7979   6.7979   7.7770   7.7770   7.8057
     8.9226   8.9226   9.6128  10.1350  10.4292  10.4292  11.0495

     occupation numbers 
     1.0000   1.0000   1.0000   1.0000   1.0000   1.0000   1.0000   1.0000
     1.0000   1.0000   1.0000   1.0000   1.0000   1.0000   1.0000   1.0000
     1.0000   1.0000   1.0000   1.0000   1.0000   1.0000   1.0000   1.0000
     1.0000   1.0000   1.0000   1.0000   1.0000   1.0000   1.0000   1.0000
     1.0000   1.0000   1.0000   1.0000   1.0000   1.0000   1.0000   1.0000
     1.0000   1.0000   1.0000   1.0000   1.0000   1.0000   1.0000   1.0000
     1.0000   1.0000   1.0000   1.0000   1.0000   1.0000   1.0000   1.0000
     1.0000   1.0000   1.0000   1.0000   1.0000   1.0000   1.0000   1.0000
     0.0000   0.0000   0.0000   0.0000   0.0000   0.0000   0.0000   0.0000
     0.0000   0.0000   0.0000   0.0000   0.0000   0.0000   0.0000

          k = 0.2500-0.5000 0.0000 (  7340 PWs)   bands (ev):

    -0.7900  -0.7900  -0.7165  -0.7165  -0.4592  -0.4592  -0.1429  -0.1429
     0.3176   0.3176   0.4989   0.4989   0.6853   0.6853   0.8979   0.8979
     1.0292   1.0292   1.2280   1.2280   1.2377   1.2377   1.3405   1.3405
     1.4403   1.4403   1.6139   1.6139   1.7029   1.7029   1.8131   1.8131
     1.8243   1.8243   1.8999   1.8999   2.0859   2.0859   2.1487   2.1487
     2.4495   2.4495   2.4751   2.4751   2.6923   2.6923   2.9921   2.9921
     3.1329   3.1329   3.2070   3.2070   3.4937   3.4937   3.5210   3.5210
     3.5902   3.5902   3.5958   3.5958   3.8443   3.8443   3.9567   3.9567
     4.5910   4.5910   5.8308   5.8308   7.5520   7.5520   7.9002   7.9002
     8.7139   8.7139   9.3179   9.3179  10.1692  10.1693  11.0292

     occupation numbers 
     1.0000   1.0000   1.0000   1.0000   1.0000   1.0000   1.0000   1.0000
     1.0000   1.0000   1.0000   1.0000   1.0000   1.0000   1.0000   1.0000
     1.0000   1.0000   1.0000   1.0000   1.0000   1.0000   1.0000   1.0000
     1.0000   1.0000   1.0000   1.0000   1.0000   1.0000   1.0000   1.0000
     1.0000   1.0000   1.0000   1.0000   1.0000   1.0000   1.0000   1.0000
     1.0000   1.0000   1.0000   1.0000   1.0000   1.0000   1.0000   1.0000
     1.0000   1.0000   1.0000   1.0000   1.0000   1.0000   1.0000   1.0000
     1.0000   1.0000   1.0000   1.0000   1.0000   1.0000   1.0000   1.0000
     1.0000   1.0000   0.0114   0.0114   0.0000   0.0000   0.0000   0.0000
     0.0000   0.0000   0.0000   0.0000   0.0000   0.0000   0.0000

          k =-0.5000-0.5000 0.0000 (  7316 PWs)   bands (ev):

    -0.9103  -0.9103  -0.9103  -0.9103  -0.4420  -0.4420  -0.4419  -0.4419
     0.2773   0.2773   0.2775   0.2775   1.1452   1.1452   1.1453   1.1453
     1.1940   1.1940   1.1942   1.1942   1.3873   1.3873   1.3874   1.3874
     1.4079   1.4079   1.4080   1.4080   1.7721   1.7721   1.7723   1.7723
     1.7846   1.7846   1.7847   1.7847   2.3029   2.3029   2.3031   2.3031
     2.6583   2.6583   2.6584   2.6584   3.0342   3.0342   3.0343   3.0343
     3.4846   3.4846   3.4846   3.4846   3.5548   3.5548   3.5548   3.5548
     3.7106   3.7106   3.7107   3.7107   5.2559   5.2559   5.2561   5.2561
     5.4565   5.4565   5.4567   5.4567   5.8437   5.8437   5.8441   5.8441
     7.8892   7.8892   7.8896   7.8896   9.7323   9.7323   9.7323

     occupation numbers 
     1.0000   1.0000   1.0000   1.0000   1.0000   1.0000   1.0000   1.0000
     1.0000   1.0000   1.0000   1.0000   1.0000   1.0000   1.0000   1.0000
     1.0000   1.0000   1.0000   1.0000   1.0000   1.0000   1.0000   1.0000
     1.0000   1.0000   1.0000   1.0000   1.0000   1.0000   1.0000   1.0000
     1.0000   1.0000   1.0000   1.0000   1.0000   1.0000   1.0000   1.0000
     1.0000   1.0000   1.0000   1.0000   1.0000   1.0000   1.0000   1.0000
     1.0000   1.0000   1.0000   1.0000   1.0000   1.0000   1.0000   1.0000
     1.0000   1.0000   1.0000   1.0000   1.0000   1.0000   1.0000   1.0000
     1.0000   1.0000   1.0000   1.0000   0.0032   0.0032   0.0031   0.0031
     0.0000   0.0000   0.0000   0.0000   0.0000   0.0000   0.0000

     the Fermi energy is     5.7651 ev

!    total energy              =   -1379.69503217 Ry
     estimated scf accuracy    <       0.00000022 Ry
     smearing contrib. (-TS)   =      -0.00042805 Ry
     internal energy E=F+TS    =   -1379.69460412 Ry

     The total energy is F=E-TS. E is the sum of the following terms:
     one-electron contribution =   -4923.70320732 Ry
     hartree contribution      =    2580.97256903 Ry
     xc contribution           =    -746.44621133 Ry
     ewald contribution        =    1709.48224550 Ry

     convergence has been achieved in  13 iterations

     negative rho (up, down):  1.659E-05 0.000E+00

     Forces acting on atoms (cartesian axes, Ry/au):

     atom    1 type  1   force =     0.00000000    0.00000000    0.00722473
     atom    2 type  1   force =     0.00000000    0.00000000   -0.00017261
     atom    3 type  1   force =     0.00000000    0.00000000    0.00313013
     atom    4 type  1   force =     0.00000000    0.00000000   -0.00328528
     atom    5 type  1   force =     0.00000000    0.00000000    0.00023180
     atom    6 type  1   force =     0.00000000    0.00000000   -0.00712470
     atom    7 type  1   force =     0.00000000    0.00000000   -0.00328528
     atom    8 type  1   force =     0.00000000    0.00000000    0.00023180
     atom    9 type  1   force =     0.00000000    0.00000000   -0.00712470
     atom   10 type  1   force =     0.00000000    0.00000000    0.00723928
     atom   11 type  1   force =     0.00000000    0.00000000   -0.00016859
     atom   12 type  1   force =     0.00000000    0.00000000    0.00310342
     The non-local contrib.  to forces
     atom    1 type  1   force =     0.00000000    0.00000000    0.00820406
     atom    2 type  1   force =     0.00000000    0.00000000   -0.00259590
     atom    3 type  1   force =     0.00000000    0.00000000    0.01728264
     atom    4 type  1   force =     0.00000000    0.00000000   -0.01749331
     atom    5 type  1   force =     0.00000000    0.00000000    0.00256244
     atom    6 type  1   force =     0.00000000    0.00000000   -0.00820612
     atom    7 type  1   force =     0.00000000    0.00000000   -0.01749331
     atom    8 type  1   force =     0.00000000    0.00000000    0.00256244
     atom    9 type  1   force =     0.00000000    0.00000000   -0.00820612
     atom   10 type  1   force =     0.00000000    0.00000000    0.00820614
     atom   11 type  1   force =     0.00000000    0.00000000   -0.00259208
     atom   12 type  1   force =     0.00000000    0.00000000    0.01728298
     The ionic contribution  to forces
     atom    1 type  1   force =    -0.00000000   -0.00000000 -106.79339150
     atom    2 type  1   force =    -0.00000000   -0.00000000  -21.73853309
     atom    3 type  1   force =    -0.00000000   -0.00000000   65.24400865
     atom    4 type  1   force =    -0.00000000   -0.00000000  -65.24400865
     atom    5 type  1   force =    -0.00000000   -0.00000000   21.73853309
     atom    6 type  1   force =     0.00000000    0.00000000  106.79339150
     atom    7 type  1   force =    -0.00000000   -0.00000000  -65.24400865
     atom    8 type  1   force =    -0.00000000   -0.00000000   21.73853309
     atom    9 type  1   force =     0.00000000    0.00000000  106.79339150
     atom   10 type  1   force =     0.00000000    0.00000000 -106.79339150
     atom   11 type  1   force =    -0.00000000   -0.00000000  -21.73853309
     atom   12 type  1   force =    -0.00000000   -0.00000000   65.24400865
     The local contribution  to forces
     atom    1 type  1   force =     0.00000000    0.00000000  106.76847397
     atom    2 type  1   force =     0.00000000    0.00000000   21.74238012
     atom    3 type  1   force =     0.00000000    0.00000000  -65.26057689
     atom    4 type  1   force =     0.00000000    0.00000000   65.26151757
     atom    5 type  1   force =     0.00000000    0.00000000  -21.74164350
     atom    6 type  1   force =     0.00000000    0.00000000 -106.76856211
     atom    7 type  1   force =     0.00000000    0.00000000   65.26151757
     atom    8 type  1   force =     0.00000000    0.00000000  -21.74164350
     atom    9 type  1   force =     0.00000000    0.00000000 -106.76856211
     atom   10 type  1   force =     0.00000000    0.00000000  106.76847499
     atom   11 type  1   force =     0.00000000    0.00000000   21.74237451
     atom   12 type  1   force =     0.00000000    0.00000000  -65.26057396
     The core correction contribution to forces
     atom    1 type  1   force =     0.00000000   -0.00000000    0.02364254
     atom    2 type  1   force =     0.00000000    0.00000000   -0.00094900
     atom    3 type  1   force =    -0.00000000   -0.00000000    0.00270614
     atom    4 type  1   force =    -0.00000000    0.00000000   -0.00268451
     atom    5 type  1   force =     0.00000000    0.00000000    0.00087958
     atom    6 type  1   force =     0.00000000   -0.00000000   -0.02360928
     atom    7 type  1   force =     0.00000000   -0.00000000   -0.00268451
     atom    8 type  1   force =     0.00000000   -0.00000000    0.00087958
     atom    9 type  1   force =    -0.00000000    0.00000000   -0.02360928
     atom   10 type  1   force =    -0.00000000   -0.00000000    0.02365804
     atom   11 type  1   force =     0.00000000    0.00000000   -0.00095129
     atom   12 type  1   force =     0.00000000    0.00000000    0.00268252
     The Hubbard contrib.    to forces
     atom    1 type  1   force =     0.00000000    0.00000000    0.00000000
     atom    2 type  1   force =     0.00000000    0.00000000    0.00000000
     atom    3 type  1   force =     0.00000000    0.00000000    0.00000000
     atom    4 type  1   force =     0.00000000    0.00000000    0.00000000
     atom    5 type  1   force =     0.00000000    0.00000000    0.00000000
     atom    6 type  1   force =     0.00000000    0.00000000    0.00000000
     atom    7 type  1   force =     0.00000000    0.00000000    0.00000000
     atom    8 type  1   force =     0.00000000    0.00000000    0.00000000
     atom    9 type  1   force =     0.00000000    0.00000000    0.00000000
     atom   10 type  1   force =     0.00000000    0.00000000    0.00000000
     atom   11 type  1   force =     0.00000000    0.00000000    0.00000000
     atom   12 type  1   force =     0.00000000    0.00000000    0.00000000
     The SCF correction term to forces
     atom    1 type  1   force =    -0.00000000   -0.00000000    0.00026235
     atom    2 type  1   force =    -0.00000000   -0.00000000   -0.00050805
     atom    3 type  1   force =    -0.00000000   -0.00000000   -0.00032372
     atom    4 type  1   force =     0.00000000    0.00000000   -0.00064971
     atom    5 type  1   force =     0.00000000    0.00000000   -0.00013313
     atom    6 type  1   force =    -0.00000000   -0.00000000   -0.00017200
     atom    7 type  1   force =    -0.00000000    0.00000000   -0.00064971
     atom    8 type  1   force =    -0.00000000   -0.00000000   -0.00013313
     atom    9 type  1   force =    -0.00000000    0.00000000   -0.00017200
     atom   10 type  1   force =     0.00000000    0.00000000    0.00025830
     atom   11 type  1   force =    -0.00000000   -0.00000000   -0.00049995
     atom   12 type  1   force =     0.00000000   -0.00000000   -0.00033008

     Total force =     0.015726     Total SCF correction =     0.001340


     Computing stress (Cartesian axis) and pressure


     negative rho (up, down):  1.659E-05 0.000E+00
          total   stress  (Ry/bohr**3)                   (kbar)     P=      -23.41
  -0.00019811   0.00000000   0.00000000          -29.14        0.00        0.00
   0.00000000  -0.00019811   0.00000000            0.00      -29.14        0.00
   0.00000000   0.00000000  -0.00008126            0.00        0.00      -11.95

     kinetic stress (kbar)  11189.38      0.00      0.00
                                0.00  11189.38      0.00
                                0.00      0.00  11242.75

     local   stress (kbar)-264975.74      0.00      0.00
                                0.00-264975.74      0.00
                                0.00      0.00 292169.56

     nonloc. stress (kbar)  -7087.16      0.00      0.00
                                0.00  -7087.16      0.00
                                0.00      0.00  -7094.58

     hartree stress (kbar) 139343.67     -0.00      0.00
                               -0.00 139343.67     -0.00
                                0.00     -0.00-135064.50

     exc-cor stress (kbar)  28959.94     -0.00     -0.00
                               -0.00  28959.94      0.00
                               -0.00      0.00  28955.91

     corecor stress (kbar) -33420.18     -0.00      0.00
                               -0.00 -33420.18     -0.00
                                0.00     -0.00 -33426.41

     ewald   stress (kbar) 125960.94      0.00      0.00
                                0.00 125960.94      0.00
                                0.00      0.00-156794.67

     hubbard stress (kbar)      0.00      0.00      0.00
                                0.00      0.00      0.00
                                0.00      0.00      0.00

     DFT-D   stress (kbar)      0.00      0.00      0.00
                                0.00      0.00      0.00
                                0.00      0.00      0.00

     XDM     stress (kbar)      0.00      0.00      0.00
                                0.00      0.00      0.00
                                0.00      0.00      0.00

     dft-nl  stress (kbar)      0.00      0.00      0.00
                                0.00      0.00      0.00
                                0.00      0.00      0.00

     TS-vdW  stress (kbar)      0.00      0.00      0.00
                                0.00      0.00      0.00
                                0.00      0.00      0.00



     BFGS Geometry Optimization
     Energy error            =      0.0E+00
     Gradient error          =      7.2E-03

     number of scf cycles    =   1
     number of bfgs steps    =   0

     energy   new            =   -1379.6950321670 Ry

     new trust radius        =       0.0072392774 bohr
     new conv_thr            =       0.0000010000 Ry


ATOMIC_POSITIONS (angstrom)
Au            0.0000000000        0.0000000000        0.0038231613
Au            0.0000000000        0.0000000000        4.1711986605
Au            0.0000000000        0.0000000000        8.3442363917
Au            0.0000000000        2.0856450000        2.0839065056
Au            0.0000000000        2.0856450000        6.2570576648
Au            0.0000000000        2.0856450000       10.4244547696
Au            2.0856450000        0.0000000000        2.0839065056
Au            2.0856450000        0.0000000000        6.2570576648
Au            2.0856450000        0.0000000000       10.4244547696
Au            2.0856450000        2.0856450000        0.0038308606
Au            2.0856450000        2.0856450000        4.1712007879
Au            2.0856450000        2.0856450000        8.3442222580



     Writing output data file ./surface.save/
     NEW-OLD atomic charge density approx. for the potential

     Check: negative core charge=   -0.000003

     negative rho (up, down):  1.669E-05 0.000E+00

     total cpu time spent up to now is       22.4 secs

     Self-consistent Calculation

     iteration #  1     ecut=    30.00 Ry     beta= 0.30
     Davidson diagonalization with overlap
     ethr =  1.00E-06,  avg # of iterations =  4.7

     Threshold (ethr) on eigenvalues was too large:
     Diagonalizing with lowered threshold

     Davidson diagonalization with overlap
     ethr =  2.78E-08,  avg # of iterations =  4.3

     negative rho (up, down):  1.676E-05 0.000E+00

     total cpu time spent up to now is       25.8 secs

     total energy              =   -1379.69524530 Ry
     estimated scf accuracy    <       0.00003330 Ry

     iteration #  2     ecut=    30.00 Ry     beta= 0.30
     Davidson diagonalization with overlap
     ethr =  2.52E-08,  avg # of iterations =  2.2

     negative rho (up, down):  1.682E-05 0.000E+00

     total cpu time spent up to now is       27.1 secs

     total energy              =   -1379.69521500 Ry
     estimated scf accuracy    <       0.00102934 Ry

     iteration #  3     ecut=    30.00 Ry     beta= 0.30
     Davidson diagonalization with overlap
     ethr =  2.52E-08,  avg # of iterations =  2.2

     negative rho (up, down):  1.686E-05 0.000E+00

     total cpu time spent up to now is       28.4 secs

     total energy              =   -1379.69525948 Ry
     estimated scf accuracy    <       0.00000645 Ry

     iteration #  4     ecut=    30.00 Ry     beta= 0.30
     Davidson diagonalization with overlap
     ethr =  4.88E-09,  avg # of iterations =  1.5

     negative rho (up, down):  1.689E-05 0.000E+00

     total cpu time spent up to now is       29.5 secs

     total energy              =   -1379.69526009 Ry
     estimated scf accuracy    <       0.00000239 Ry

     iteration #  5     ecut=    30.00 Ry     beta= 0.30
     Davidson diagonalization with overlap
     ethr =  1.81E-09,  avg # of iterations =  1.3

     negative rho (up, down):  1.695E-05 0.000E+00

     total cpu time spent up to now is       30.6 secs

     End of self-consistent calculation

          k = 0.0000 0.0000 0.0000 (  7355 PWs)   bands (ev):

    -3.2412  -2.4630  -1.3816  -0.7594  -0.6407  -0.6406  -0.4370  -0.3761
    -0.3761  -0.3474  -0.3454  -0.1787  -0.1786  -0.1375   0.1008   0.1008
     0.3006   0.5209   0.5214   0.7735   0.8442   0.8442   1.1383   1.2907
     1.4450   1.4450   1.7905   1.7905   1.8306   1.8306   2.1750   2.2820
     2.4062   2.4062   2.6089   2.6274   2.7274   2.8253   2.8253   2.8270
     2.8271   2.9217   3.0677   3.0677   3.1981   3.3309   3.3311   3.4884
     3.6338   3.6339   3.6405   3.6405   3.6964   3.6964   3.7486   3.7788
     3.9013   3.9496   3.9496   4.0110   4.0111   4.0206   4.0211   4.4449
     4.4455   5.9663   7.0850   7.5076   7.5076   8.9248   8.9248  10.0365
    10.2594  10.2595  10.6315  10.6315  10.6646  10.6647  10.6658

     occupation numbers 
     1.0000   1.0000   1.0000   1.0000   1.0000   1.0000   1.0000   1.0000
     1.0000   1.0000   1.0000   1.0000   1.0000   1.0000   1.0000   1.0000
     1.0000   1.0000   1.0000   1.0000   1.0000   1.0000   1.0000   1.0000
     1.0000   1.0000   1.0000   1.0000   1.0000   1.0000   1.0000   1.0000
     1.0000   1.0000   1.0000   1.0000   1.0000   1.0000   1.0000   1.0000
     1.0000   1.0000   1.0000   1.0000   1.0000   1.0000   1.0000   1.0000
     1.0000   1.0000   1.0000   1.0000   1.0000   1.0000   1.0000   1.0000
     1.0000   1.0000   1.0000   1.0000   1.0000   1.0000   1.0000   1.0000
     1.0000   0.0000   0.0000   0.0000   0.0000   0.0000   0.0000   0.0000
     0.0000   0.0000   0.0000   0.0000   0.0000   0.0000   0.0000

          k = 0.0000 0.2500 0.0000 (  7338 PWs)   bands (ev):

    -2.5862  -1.8644  -0.8689  -0.4567  -0.3167  -0.2830  -0.1553  -0.1523
    -0.0862   0.0577   0.1177   0.1279   0.1675   0.2226   0.2345   0.2741
     0.5281   0.6672   0.8246   0.8820   0.9107   0.9203   1.0257   1.4651
     1.4922   1.5592   1.5709   1.6150   1.6468   1.6746   1.8112   1.8952
     2.2253   2.3085   2.3320   2.3484   2.3892   2.4695   2.5518   2.6885
     2.7369   2.8360   2.9106   2.9555   3.0094   3.0471   3.1271   3.1977
     3.1995   3.2008   3.2236   3.3982   3.4075   3.4282   3.4610   3.4764
     3.4992   3.5703   3.5981   3.6050   3.8141   3.9346   3.9712   4.0931
     4.6128   5.2816   5.7460   6.8920   7.0815   7.9879   8.5639   9.0932
     9.2462  10.0856  10.3943  10.6105  10.9600  11.9008  12.6340

     occupation numbers 
     1.0000   1.0000   1.0000   1.0000   1.0000   1.0000   1.0000   1.0000
     1.0000   1.0000   1.0000   1.0000   1.0000   1.0000   1.0000   1.0000
     1.0000   1.0000   1.0000   1.0000   1.0000   1.0000   1.0000   1.0000
     1.0000   1.0000   1.0000   1.0000   1.0000   1.0000   1.0000   1.0000
     1.0000   1.0000   1.0000   1.0000   1.0000   1.0000   1.0000   1.0000
     1.0000   1.0000   1.0000   1.0000   1.0000   1.0000   1.0000   1.0000
     1.0000   1.0000   1.0000   1.0000   1.0000   1.0000   1.0000   1.0000
     1.0000   1.0000   1.0000   1.0000   1.0000   1.0000   1.0000   1.0000
     1.0000   1.0000   0.7328   0.0000   0.0000   0.0000   0.0000   0.0000
     0.0000   0.0000   0.0000   0.0000   0.0000   0.0000   0.0000

          k = 0.0000-0.5000 0.0000 (  7362 PWs)   bands (ev):

    -0.9969  -0.9969  -0.4461  -0.4461   0.1255   0.1255   0.3221   0.3221
     0.4104   0.4104   0.4910   0.4910   0.6541   0.6541   0.6701   0.6701
     0.8659   0.8660   0.8937   0.8937   0.9702   0.9703   0.9945   0.9945
     1.2315   1.2315   1.4692   1.4692   1.5486   1.5486   1.7224   1.7224
     2.2585   2.2585   2.2638   2.2638   2.3107   2.3107   2.3167   2.3167
     2.3999   2.3999   2.4329   2.4329   2.5718   2.5718   2.6415   2.6415
     2.6749   2.6749   2.7848   2.7848   2.7854   2.7854   2.9976   2.9976
     3.2559   3.2559   3.5383   3.5383   3.7282   3.7282   3.9091   3.9091
     4.5357   4.5357   5.5951   5.5951   7.0222   7.0222   8.7347   8.7347
    11.0144  11.0145  11.5396  11.5397  12.1796  12.3318  12.3339

     occupation numbers 
     1.0000   1.0000   1.0000   1.0000   1.0000   1.0000   1.0000   1.0000
     1.0000   1.0000   1.0000   1.0000   1.0000   1.0000   1.0000   1.0000
     1.0000   1.0000   1.0000   1.0000   1.0000   1.0000   1.0000   1.0000
     1.0000   1.0000   1.0000   1.0000   1.0000   1.0000   1.0000   1.0000
     1.0000   1.0000   1.0000   1.0000   1.0000   1.0000   1.0000   1.0000
     1.0000   1.0000   1.0000   1.0000   1.0000   1.0000   1.0000   1.0000
     1.0000   1.0000   1.0000   1.0000   1.0000   1.0000   1.0000   1.0000
     1.0000   1.0000   1.0000   1.0000   1.0000   1.0000   1.0000   1.0000
     1.0000   1.0000   1.0000   1.0000   0.0000   0.0000   0.0000   0.0000
     0.0000   0.0000   0.0000   0.0000   0.0000   0.0000   0.0000

          k = 0.2500 0.2500 0.0000 (  7324 PWs)   bands (ev):

    -2.0299  -1.4830  -0.8097  -0.3307  -0.2056  -0.2056  -0.1195  -0.1193
     0.0020   0.0450   0.1214   0.1214   0.4225   0.4832   0.4832   0.7701
     0.8567   0.8569   1.1079   1.1286   1.1291   1.2446   1.3907   1.4491
     1.5161   1.6370   1.6512   1.6889   1.7349   1.7350   1.7350   1.8457
     1.8458   1.8784   1.9443   2.1828   2.2597   2.2598   2.3138   2.3149
     2.4549   2.4555   2.5725   2.6129   2.6226   2.6227   2.9407   2.9445
     3.0364   3.1275   3.1276   3.1831   3.2431   3.4461   3.4462   3.4611
     3.7091   3.7323   3.7324   3.7808   3.8433   3.8434   3.8524   4.2429
     5.8978   6.0707   6.0707   6.7957   6.7958   7.7765   7.7766   7.8098
     8.9271   8.9271   9.6166  10.1368  10.4334  10.4334  11.0486

     occupation numbers 
     1.0000   1.0000   1.0000   1.0000   1.0000   1.0000   1.0000   1.0000
     1.0000   1.0000   1.0000   1.0000   1.0000   1.0000   1.0000   1.0000
     1.0000   1.0000   1.0000   1.0000   1.0000   1.0000   1.0000   1.0000
     1.0000   1.0000   1.0000   1.0000   1.0000   1.0000   1.0000   1.0000
     1.0000   1.0000   1.0000   1.0000   1.0000   1.0000   1.0000   1.0000
     1.0000   1.0000   1.0000   1.0000   1.0000   1.0000   1.0000   1.0000
     1.0000   1.0000   1.0000   1.0000   1.0000   1.0000   1.0000   1.0000
     1.0000   1.0000   1.0000   1.0000   1.0000   1.0000   1.0000   1.0000
     0.0000   0.0000   0.0000   0.0000   0.0000   0.0000   0.0000   0.0000
     0.0000   0.0000   0.0000   0.0000   0.0000   0.0000   0.0000

          k = 0.2500-0.5000 0.0000 (  7340 PWs)   bands (ev):

    -0.7877  -0.7877  -0.7175  -0.7175  -0.4639  -0.4639  -0.1476  -0.1476
     0.3098   0.3098   0.4947   0.4947   0.6841   0.6841   0.8955   0.8955
     1.0280   1.0280   1.2226   1.2226   1.2354   1.2354   1.3418   1.3418
     1.4370   1.4370   1.6120   1.6120   1.7039   1.7039   1.8105   1.8105
     1.8211   1.8211   1.8999   1.8999   2.0852   2.0852   2.1452   2.1452
     2.4455   2.4455   2.4731   2.4731   2.6909   2.6909   2.9897   2.9897
     3.1315   3.1315   3.2070   3.2071   3.4946   3.4946   3.5235   3.5235
     3.5905   3.5905   3.5961   3.5962   3.8451   3.8451   3.9572   3.9572
     4.5912   4.5912   5.8355   5.8355   7.5581   7.5581   7.9006   7.9006
     8.7116   8.7116   9.3205   9.3205  10.1676  10.1676  11.0309

     occupation numbers 
     1.0000   1.0000   1.0000   1.0000   1.0000   1.0000   1.0000   1.0000
     1.0000   1.0000   1.0000   1.0000   1.0000   1.0000   1.0000   1.0000
     1.0000   1.0000   1.0000   1.0000   1.0000   1.0000   1.0000   1.0000
     1.0000   1.0000   1.0000   1.0000   1.0000   1.0000   1.0000   1.0000
     1.0000   1.0000   1.0000   1.0000   1.0000   1.0000   1.0000   1.0000
     1.0000   1.0000   1.0000   1.0000   1.0000   1.0000   1.0000   1.0000
     1.0000   1.0000   1.0000   1.0000   1.0000   1.0000   1.0000   1.0000
     1.0000   1.0000   1.0000   1.0000   1.0000   1.0000   1.0000   1.0000
     1.0000   1.0000   0.0065   0.0065   0.0000   0.0000   0.0000   0.0000
     0.0000   0.0000   0.0000   0.0000   0.0000   0.0000   0.0000

          k =-0.5000-0.5000 0.0000 (  7316 PWs)   bands (ev):

    -0.9096  -0.9096  -0.9095  -0.9095  -0.4469  -0.4469  -0.4468  -0.4468
     0.2692   0.2692   0.2695   0.2695   1.1464   1.1464   1.1467   1.1467
     1.1930   1.1930   1.1931   1.1931   1.3885   1.3885   1.3885   1.3885
     1.4089   1.4089   1.4090   1.4090   1.7675   1.7675   1.7675   1.7675
     1.7828   1.7828   1.7829   1.7829   2.2954   2.2954   2.2957   2.2957
     2.6560   2.6560   2.6561   2.6561   3.0341   3.0341   3.0341   3.0341
     3.4864   3.4864   3.4866   3.4866   3.5539   3.5539   3.5539   3.5539
     3.7123   3.7123   3.7124   3.7124   5.2567   5.2568   5.2568   5.2568
     5.4557   5.4557   5.4558   5.4558   5.8400   5.8400   5.8403   5.8403
     7.8927   7.8927   7.8929   7.8929   9.7343   9.7344   9.7344

     occupation numbers 
     1.0000   1.0000   1.0000   1.0000   1.0000   1.0000   1.0000   1.0000
     1.0000   1.0000   1.0000   1.0000   1.0000   1.0000   1.0000   1.0000
     1.0000   1.0000   1.0000   1.0000   1.0000   1.0000   1.0000   1.0000
     1.0000   1.0000   1.0000   1.0000   1.0000   1.0000   1.0000   1.0000
     1.0000   1.0000   1.0000   1.0000   1.0000   1.0000   1.0000   1.0000
     1.0000   1.0000   1.0000   1.0000   1.0000   1.0000   1.0000   1.0000
     1.0000   1.0000   1.0000   1.0000   1.0000   1.0000   1.0000   1.0000
     1.0000   1.0000   1.0000   1.0000   1.0000   1.0000   1.0000   1.0000
     1.0000   1.0000   1.0000   1.0000   0.0042   0.0042   0.0041   0.0041
     0.0000   0.0000   0.0000   0.0000   0.0000   0.0000   0.0000

     the Fermi energy is     5.7639 ev

!    total energy              =   -1379.69526023 Ry
     estimated scf accuracy    <       0.00000024 Ry
     smearing contrib. (-TS)   =      -0.00040079 Ry
     internal energy E=F+TS    =   -1379.69485943 Ry

     The total energy is F=E-TS. E is the sum of the following terms:
     one-electron contribution =   -4928.12881853 Ry
     hartree contribution      =    2583.18855469 Ry
     xc contribution           =    -746.45160046 Ry
     ewald contribution        =    1711.69700486 Ry

     convergence has been achieved in   5 iterations

     negative rho (up, down):  1.695E-05 0.000E+00

     Forces acting on atoms (cartesian axes, Ry/au):

     atom    1 type  1   force =     0.00000000    0.00000000    0.00664980
     atom    2 type  1   force =     0.00000000    0.00000000   -0.00043501
     atom    3 type  1   force =     0.00000000    0.00000000    0.00229335
     atom    4 type  1   force =     0.00000000    0.00000000   -0.00209733
     atom    5 type  1   force =     0.00000000    0.00000000    0.00008858
     atom    6 type  1   force =     0.00000000    0.00000000   -0.00649701
     atom    7 type  1   force =     0.00000000    0.00000000   -0.00209733
     atom    8 type  1   force =     0.00000000    0.00000000    0.00008858
     atom    9 type  1   force =     0.00000000    0.00000000   -0.00649701
     atom   10 type  1   force =     0.00000000    0.00000000    0.00666108
     atom   11 type  1   force =     0.00000000    0.00000000   -0.00043897
     atom   12 type  1   force =     0.00000000    0.00000000    0.00228127
     The non-local contrib.  to forces
     atom    1 type  1   force =     0.00000000    0.00000000    0.00828715
     atom    2 type  1   force =     0.00000000    0.00000000   -0.00289419
     atom    3 type  1   force =     0.00000000    0.00000000    0.01707886
     atom    4 type  1   force =     0.00000000    0.00000000   -0.01707939
     atom    5 type  1   force =     0.00000000    0.00000000    0.00245302
     atom    6 type  1   force =     0.00000000    0.00000000   -0.00815419
     atom    7 type  1   force =     0.00000000    0.00000000   -0.01707939
     atom    8 type  1   force =     0.00000000    0.00000000    0.00245302
     atom    9 type  1   force =     0.00000000    0.00000000   -0.00815419
     atom   10 type  1   force =     0.00000000    0.00000000    0.00828729
     atom   11 type  1   force =     0.00000000    0.00000000   -0.00289845
     atom   12 type  1   force =     0.00000000    0.00000000    0.01708822
     The ionic contribution  to forces
     atom    1 type  1   force =    -0.00000000    0.00000000 -106.87237238
     atom    2 type  1   force =    -0.00000000   -0.00000000  -21.73043921
     atom    3 type  1   force =    -0.00000000   -0.00000000   65.22728512
     atom    4 type  1   force =    -0.00000000   -0.00000000  -65.22587973
     atom    5 type  1   force =     0.00000000    0.00000000   21.73003482
     atom    6 type  1   force =     0.00000000   -0.00000000  106.87141299
     atom    7 type  1   force =    -0.00000000   -0.00000000  -65.22587973
     atom    8 type  1   force =     0.00000000   -0.00000000   21.73003482
     atom    9 type  1   force =    -0.00000000   -0.00000000  106.87141299
     atom   10 type  1   force =    -0.00000000   -0.00000000 -106.87230568
     atom   11 type  1   force =     0.00000000    0.00000000  -21.73041681
     atom   12 type  1   force =     0.00000000    0.00000000   65.22711279
     The local contribution  to forces
     atom    1 type  1   force =     0.00000000    0.00000000  106.84648727
     atom    2 type  1   force =     0.00000000    0.00000000   21.73391725
     atom    3 type  1   force =     0.00000000    0.00000000  -65.24559075
     atom    4 type  1   force =     0.00000000    0.00000000   65.24342528
     atom    5 type  1   force =     0.00000000   -0.00000000  -21.73315430
     atom    6 type  1   force =     0.00000000   -0.00000000 -106.84604745
     atom    7 type  1   force =     0.00000000    0.00000000   65.24342528
     atom    8 type  1   force =    -0.00000000    0.00000000  -21.73315430
     atom    9 type  1   force =    -0.00000000    0.00000000 -106.84604745
     atom   10 type  1   force =     0.00000000    0.00000000  106.84641735
     atom   11 type  1   force =     0.00000000    0.00000000   21.73389465
     atom   12 type  1   force =     0.00000000    0.00000000  -65.24541932
     The core correction contribution to forces
     atom    1 type  1   force =     0.00000000   -0.00000000    0.02383809
     atom    2 type  1   force =     0.00000000   -0.00000000   -0.00082770
     atom    3 type  1   force =    -0.00000000   -0.00000000    0.00302443
     atom    4 type  1   force =     0.00000000    0.00000000   -0.00299588
     atom    5 type  1   force =     0.00000000   -0.00000000    0.00093016
     atom    6 type  1   force =    -0.00000000    0.00000000   -0.02382126
     atom    7 type  1   force =     0.00000000    0.00000000   -0.00299588
     atom    8 type  1   force =    -0.00000000   -0.00000000    0.00093016
     atom    9 type  1   force =     0.00000000   -0.00000000   -0.02382126
     atom   10 type  1   force =     0.00000000   -0.00000000    0.02385421
     atom   11 type  1   force =    -0.00000000   -0.00000000   -0.00082750
     atom   12 type  1   force =    -0.00000000    0.00000000    0.00300142
     The Hubbard contrib.    to forces
     atom    1 type  1   force =     0.00000000    0.00000000    0.00000000
     atom    2 type  1   force =     0.00000000    0.00000000    0.00000000
     atom    3 type  1   force =     0.00000000    0.00000000    0.00000000
     atom    4 type  1   force =     0.00000000    0.00000000    0.00000000
     atom    5 type  1   force =     0.00000000    0.00000000    0.00000000
     atom    6 type  1   force =     0.00000000    0.00000000    0.00000000
     atom    7 type  1   force =     0.00000000    0.00000000    0.00000000
     atom    8 type  1   force =     0.00000000    0.00000000    0.00000000
     atom    9 type  1   force =     0.00000000    0.00000000    0.00000000
     atom   10 type  1   force =     0.00000000    0.00000000    0.00000000
     atom   11 type  1   force =     0.00000000    0.00000000    0.00000000
     atom   12 type  1   force =     0.00000000    0.00000000    0.00000000
     The SCF correction term to forces
     atom    1 type  1   force =     0.00000000   -0.00000000    0.00039503
     atom    2 type  1   force =     0.00000000   -0.00000000   -0.00020581
     atom    3 type  1   force =     0.00000000   -0.00000000    0.00048104
     atom    4 type  1   force =    -0.00000000    0.00000000    0.00041775
     atom    5 type  1   force =    -0.00000000    0.00000000   -0.00018978
     atom    6 type  1   force =     0.00000000    0.00000000    0.00009824
     atom    7 type  1   force =     0.00000000    0.00000000    0.00041775
     atom    8 type  1   force =     0.00000000    0.00000000   -0.00018978
     atom    9 type  1   force =     0.00000000   -0.00000000    0.00009824
     atom   10 type  1   force =     0.00000000    0.00000000    0.00039325
     atom   11 type  1   force =     0.00000000    0.00000000   -0.00020551
     atom   12 type  1   force =    -0.00000000    0.00000000    0.00048351

     Total force =     0.013881     Total SCF correction =     0.001141


     Computing stress (Cartesian axis) and pressure


     negative rho (up, down):  1.695E-05 0.000E+00
          total   stress  (Ry/bohr**3)                   (kbar)     P=      -22.52
  -0.00019231   0.00000000   0.00000000          -28.29        0.00        0.00
   0.00000000  -0.00019231   0.00000000            0.00      -28.29        0.00
   0.00000000   0.00000000  -0.00007471            0.00        0.00      -10.99

     kinetic stress (kbar)  11189.48      0.00      0.00
                                0.00  11189.48      0.00
                                0.00      0.00  11242.77

     local   stress (kbar)-265231.16      0.00      0.00
                                0.00-265231.16     -0.00
                                0.00     -0.00 292434.17

     nonloc. stress (kbar)  -7086.36      0.00      0.00
                                0.00  -7086.36      0.00
                                0.00      0.00  -7093.81

     hartree stress (kbar) 139469.67      0.00      0.00
                                0.00 139469.67      0.00
                                0.00      0.00-135193.18

     exc-cor stress (kbar)  28959.88     -0.00     -0.00
                               -0.00  28959.88      0.00
                               -0.00      0.00  28955.84

     corecor stress (kbar) -33420.20      0.00      0.00
                                0.00 -33420.20     -0.00
                                0.00     -0.00 -33426.43

     ewald   stress (kbar) 126090.40      0.00     -0.00
                                0.00 126090.40     -0.00
                               -0.00     -0.00-156930.35

     hubbard stress (kbar)      0.00      0.00      0.00
                                0.00      0.00      0.00
                                0.00      0.00      0.00

     DFT-D   stress (kbar)      0.00      0.00      0.00
                                0.00      0.00      0.00
                                0.00      0.00      0.00

     XDM     stress (kbar)      0.00      0.00      0.00
                                0.00      0.00      0.00
                                0.00      0.00      0.00

     dft-nl  stress (kbar)      0.00      0.00      0.00
                                0.00      0.00      0.00
                                0.00      0.00      0.00

     TS-vdW  stress (kbar)      0.00      0.00      0.00
                                0.00      0.00      0.00
                                0.00      0.00      0.00


     Energy error            =      2.3E-04
     Gradient error          =      6.7E-03

     number of scf cycles    =   2
     number of bfgs steps    =   1

     energy   old            =   -1379.6950321670 Ry
     energy   new            =   -1379.6952602277 Ry

     CASE: energy  _new < energy  _old


     WARNING: bfgs curvature condition failed, Theta= 0.911
     new trust radius        =       0.0079632051 bohr
     new conv_thr            =       0.0000000228 Ry


ATOMIC_POSITIONS (angstrom)
Au            0.0000000000        0.0000000000        0.0080297480
Au            0.0000000000        0.0000000000        4.1709527734
Au            0.0000000000        0.0000000000        8.3457494924
Au            0.0000000000        2.0856450000        2.0824814587
Au            0.0000000000        2.0856450000        6.2571269396
Au            0.0000000000        2.0856450000       10.4203383922
Au            2.0856450000        0.0000000000        2.0824814587
Au            2.0856450000        0.0000000000        6.2571269396
Au            2.0856450000        0.0000000000       10.4203383922
Au            2.0856450000        2.0856450000        0.0080448073
Au            2.0856450000        2.0856450000        4.1709532094
Au            2.0856450000        2.0856450000        8.3457263883



     Writing output data file ./surface.save/
     NEW-OLD atomic charge density approx. for the potential

     Check: negative core charge=   -0.000003

     negative rho (up, down):  1.706E-05 0.000E+00

     total cpu time spent up to now is       33.8 secs

     Self-consistent Calculation

     iteration #  1     ecut=    30.00 Ry     beta= 0.30
     Davidson diagonalization with overlap
     ethr =  1.00E-06,  avg # of iterations =  4.8

     Threshold (ethr) on eigenvalues was too large:
     Diagonalizing with lowered threshold

     Davidson diagonalization with overlap
     ethr =  1.11E-08,  avg # of iterations =  5.7

     negative rho (up, down):  1.715E-05 0.000E+00

     total cpu time spent up to now is       37.7 secs

     total energy              =   -1379.69546754 Ry
     estimated scf accuracy    <       0.00001285 Ry

     iteration #  2     ecut=    30.00 Ry     beta= 0.30
     Davidson diagonalization with overlap
     ethr =  9.74E-09,  avg # of iterations =  2.2

     negative rho (up, down):  1.722E-05 0.000E+00

     total cpu time spent up to now is       39.0 secs

     total energy              =   -1379.69546307 Ry
     estimated scf accuracy    <       0.00013756 Ry

     iteration #  3     ecut=    30.00 Ry     beta= 0.30
     Davidson diagonalization with overlap
     ethr =  9.74E-09,  avg # of iterations =  4.2

     negative rho (up, down):  1.728E-05 0.000E+00

     total cpu time spent up to now is       40.3 secs

     total energy              =   -1379.69547054 Ry
     estimated scf accuracy    <       0.00001900 Ry

     iteration #  4     ecut=    30.00 Ry     beta= 0.30
     Davidson diagonalization with overlap
     ethr =  9.74E-09,  avg # of iterations =  1.2

     negative rho (up, down):  1.732E-05 0.000E+00

     total cpu time spent up to now is       41.4 secs

     total energy              =   -1379.69547158 Ry
     estimated scf accuracy    <       0.00000496 Ry

     iteration #  5     ecut=    30.00 Ry     beta= 0.30
     Davidson diagonalization with overlap
     ethr =  3.76E-09,  avg # of iterations =  1.0

     negative rho (up, down):  1.734E-05 0.000E+00

     total cpu time spent up to now is       42.4 secs

     total energy              =   -1379.69547194 Ry
     estimated scf accuracy    <       0.00000063 Ry

     iteration #  6     ecut=    30.00 Ry     beta= 0.30
     Davidson diagonalization with overlap
     ethr =  4.75E-10,  avg # of iterations =  1.8

     negative rho (up, down):  1.735E-05 0.000E+00

     total cpu time spent up to now is       43.6 secs

     total energy              =   -1379.69547200 Ry
     estimated scf accuracy    <       0.00000014 Ry

     iteration #  7     ecut=    30.00 Ry     beta= 0.30
     Davidson diagonalization with overlap
     ethr =  1.04E-10,  avg # of iterations =  2.3

     negative rho (up, down):  1.736E-05 0.000E+00

     total cpu time spent up to now is       44.8 secs

     total energy              =   -1379.69547202 Ry
     estimated scf accuracy    <       0.00000004 Ry

     iteration #  8     ecut=    30.00 Ry     beta= 0.30
     Davidson diagonalization with overlap
     ethr =  3.02E-11,  avg # of iterations =  2.0

     negative rho (up, down):  1.738E-05 0.000E+00

     total cpu time spent up to now is       46.0 secs

     End of self-consistent calculation

          k = 0.0000 0.0000 0.0000 (  7355 PWs)   bands (ev):

    -3.2406  -2.4694  -1.3875  -0.7571  -0.6400  -0.6400  -0.4358  -0.3749
    -0.3749  -0.3514  -0.3498  -0.1823  -0.1822  -0.1414   0.0957   0.0957
     0.2954   0.5139   0.5142   0.7730   0.8369   0.8369   1.1407   1.2930
     1.4463   1.4463   1.7890   1.7890   1.8265   1.8265   2.1782   2.2816
     2.4005   2.4005   2.6140   2.6312   2.7290   2.8284   2.8284   2.8284
     2.8284   2.9194   3.0667   3.0667   3.1946   3.3329   3.3330   3.4879
     3.6356   3.6357   3.6424   3.6424   3.6988   3.6988   3.7487   3.7795
     3.9039   3.9516   3.9516   4.0100   4.0103   4.0238   4.0238   4.4421
     4.4423   5.9722   7.0906   7.5079   7.5079   8.9207   8.9207  10.0339
    10.2609  10.2609  10.6315  10.6315  10.6656  10.6656  10.6657

     occupation numbers 
     1.0000   1.0000   1.0000   1.0000   1.0000   1.0000   1.0000   1.0000
     1.0000   1.0000   1.0000   1.0000   1.0000   1.0000   1.0000   1.0000
     1.0000   1.0000   1.0000   1.0000   1.0000   1.0000   1.0000   1.0000
     1.0000   1.0000   1.0000   1.0000   1.0000   1.0000   1.0000   1.0000
     1.0000   1.0000   1.0000   1.0000   1.0000   1.0000   1.0000   1.0000
     1.0000   1.0000   1.0000   1.0000   1.0000   1.0000   1.0000   1.0000
     1.0000   1.0000   1.0000   1.0000   1.0000   1.0000   1.0000   1.0000
     1.0000   1.0000   1.0000   1.0000   1.0000   1.0000   1.0000   1.0000
     1.0000   0.0000   0.0000   0.0000   0.0000   0.0000   0.0000   0.0000
     0.0000   0.0000   0.0000   0.0000   0.0000   0.0000   0.0000

          k = 0.0000 0.2500 0.0000 (  7338 PWs)   bands (ev):

    -2.5855  -1.8705  -0.8749  -0.4559  -0.3147  -0.2821  -0.1541  -0.1513
    -0.0848   0.0529   0.1130   0.1235   0.1641   0.2186   0.2310   0.2692
     0.5228   0.6616   0.8184   0.8793   0.9041   0.9129   1.0265   1.4627
     1.4890   1.5604   1.5725   1.6171   1.6478   1.6717   1.8083   1.8908
     2.2243   2.3099   2.3335   2.3438   2.3848   2.4724   2.5522   2.6875
     2.7378   2.8395   2.9109   2.9574   3.0095   3.0474   3.1263   3.1968
     3.1985   3.2044   3.2211   3.3993   3.4089   3.4277   3.4631   3.4764
     3.5010   3.5715   3.6010   3.6044   3.8162   3.9368   3.9737   4.0954
     4.6132   5.2860   5.7449   6.8937   7.0872   7.9948   8.5690   9.1007
     9.2469  10.0890  10.3914  10.6082  10.9617  11.9009  12.6351

     occupation numbers 
     1.0000   1.0000   1.0000   1.0000   1.0000   1.0000   1.0000   1.0000
     1.0000   1.0000   1.0000   1.0000   1.0000   1.0000   1.0000   1.0000
     1.0000   1.0000   1.0000   1.0000   1.0000   1.0000   1.0000   1.0000
     1.0000   1.0000   1.0000   1.0000   1.0000   1.0000   1.0000   1.0000
     1.0000   1.0000   1.0000   1.0000   1.0000   1.0000   1.0000   1.0000
     1.0000   1.0000   1.0000   1.0000   1.0000   1.0000   1.0000   1.0000
     1.0000   1.0000   1.0000   1.0000   1.0000   1.0000   1.0000   1.0000
     1.0000   1.0000   1.0000   1.0000   1.0000   1.0000   1.0000   1.0000
     1.0000   1.0000   0.7377   0.0000   0.0000   0.0000   0.0000   0.0000
     0.0000   0.0000   0.0000   0.0000   0.0000   0.0000   0.0000

          k = 0.0000-0.5000 0.0000 (  7362 PWs)   bands (ev):

    -0.9960  -0.9960  -0.4509  -0.4509   0.1209   0.1209   0.3233   0.3233
     0.4122   0.4123   0.4884   0.4884   0.6516   0.6516   0.6680   0.6680
     0.8648   0.8648   0.8949   0.8949   0.9627   0.9627   0.9882   0.9882
     1.2280   1.2280   1.4675   1.4675   1.5422   1.5422   1.7150   1.7151
     2.2557   2.2557   2.2608   2.2608   2.3116   2.3117   2.3124   2.3124
     2.4008   2.4008   2.4340   2.4340   2.5716   2.5716   2.6402   2.6402
     2.6775   2.6775   2.7861   2.7861   2.7863   2.7863   3.0006   3.0006
     3.2578   3.2578   3.5429   3.5429   3.7304   3.7304   3.9118   3.9118
     4.5387   4.5387   5.6014   5.6014   7.0301   7.0301   8.7390   8.7390
    11.0184  11.0185  11.5429  11.5430  12.1805  12.1806  12.3331

     occupation numbers 
     1.0000   1.0000   1.0000   1.0000   1.0000   1.0000   1.0000   1.0000
     1.0000   1.0000   1.0000   1.0000   1.0000   1.0000   1.0000   1.0000
     1.0000   1.0000   1.0000   1.0000   1.0000   1.0000   1.0000   1.0000
     1.0000   1.0000   1.0000   1.0000   1.0000   1.0000   1.0000   1.0000
     1.0000   1.0000   1.0000   1.0000   1.0000   1.0000   1.0000   1.0000
     1.0000   1.0000   1.0000   1.0000   1.0000   1.0000   1.0000   1.0000
     1.0000   1.0000   1.0000   1.0000   1.0000   1.0000   1.0000   1.0000
     1.0000   1.0000   1.0000   1.0000   1.0000   1.0000   1.0000   1.0000
     1.0000   1.0000   1.0000   1.0000   0.0000   0.0000   0.0000   0.0000
     0.0000   0.0000   0.0000   0.0000   0.0000   0.0000   0.0000

          k = 0.2500 0.2500 0.0000 (  7324 PWs)   bands (ev):

    -2.0290  -1.4879  -0.8141  -0.3293  -0.2041  -0.2039  -0.1191  -0.1189
    -0.0050   0.0380   0.1173   0.1175   0.4233   0.4782   0.4782   0.7660
     0.8493   0.8495   1.1090   1.1227   1.1230   1.2401   1.3897   1.4484
     1.5174   1.6395   1.6520   1.6887   1.7358   1.7359   1.7365   1.8439
     1.8441   1.8779   1.9392   2.1776   2.2601   2.2601   2.3138   2.3154
     2.4519   2.4522   2.5673   2.6094   2.6251   2.6251   2.9422   2.9461
     3.0347   3.1300   3.1300   3.1824   3.2450   3.4467   3.4467   3.4632
     3.7117   3.7342   3.7342   3.7832   3.8445   3.8445   3.8553   4.2457
     5.9032   6.0716   6.0716   6.7944   6.7944   7.7770   7.7770   7.8148
     8.9323   8.9323   9.6211  10.1392  10.4388  10.4388  11.0474

     occupation numbers 
     1.0000   1.0000   1.0000   1.0000   1.0000   1.0000   1.0000   1.0000
     1.0000   1.0000   1.0000   1.0000   1.0000   1.0000   1.0000   1.0000
     1.0000   1.0000   1.0000   1.0000   1.0000   1.0000   1.0000   1.0000
     1.0000   1.0000   1.0000   1.0000   1.0000   1.0000   1.0000   1.0000
     1.0000   1.0000   1.0000   1.0000   1.0000   1.0000   1.0000   1.0000
     1.0000   1.0000   1.0000   1.0000   1.0000   1.0000   1.0000   1.0000
     1.0000   1.0000   1.0000   1.0000   1.0000   1.0000   1.0000   1.0000
     1.0000   1.0000   1.0000   1.0000   1.0000   1.0000   1.0000   1.0000
     0.0000   0.0000   0.0000   0.0000   0.0000   0.0000   0.0000   0.0000
     0.0000   0.0000   0.0000   0.0000   0.0000   0.0000   0.0000

          k = 0.2500-0.5000 0.0000 (  7340 PWs)   bands (ev):

    -0.7851  -0.7850  -0.7183  -0.7183  -0.4683  -0.4683  -0.1521  -0.1521
     0.3023   0.3023   0.4910   0.4910   0.6833   0.6833   0.8936   0.8936
     1.0271   1.0271   1.2177   1.2177   1.2335   1.2335   1.3434   1.3434
     1.4342   1.4342   1.6105   1.6105   1.7055   1.7055   1.8084   1.8084
     1.8185   1.8185   1.9007   1.9007   2.0850   2.0850   2.1422   2.1422
     2.4421   2.4421   2.4717   2.4717   2.6901   2.6902   2.9879   2.9880
     3.1307   3.1307   3.2078   3.2078   3.4964   3.4964   3.5266   3.5266
     3.5916   3.5916   3.5973   3.5973   3.8466   3.8466   3.9586   3.9586
     4.5922   4.5922   5.8411   5.8411   7.5652   7.5652   7.9016   7.9016
     8.7099   8.7099   9.3239   9.3239  10.1668  10.1668  11.0334

     occupation numbers 
     1.0000   1.0000   1.0000   1.0000   1.0000   1.0000   1.0000   1.0000
     1.0000   1.0000   1.0000   1.0000   1.0000   1.0000   1.0000   1.0000
     1.0000   1.0000   1.0000   1.0000   1.0000   1.0000   1.0000   1.0000
     1.0000   1.0000   1.0000   1.0000   1.0000   1.0000   1.0000   1.0000
     1.0000   1.0000   1.0000   1.0000   1.0000   1.0000   1.0000   1.0000
     1.0000   1.0000   1.0000   1.0000   1.0000   1.0000   1.0000   1.0000
     1.0000   1.0000   1.0000   1.0000   1.0000   1.0000   1.0000   1.0000
     1.0000   1.0000   1.0000   1.0000   1.0000   1.0000   1.0000   1.0000
     1.0000   1.0000   0.0035   0.0035   0.0000   0.0000   0.0000   0.0000
     0.0000   0.0000   0.0000   0.0000   0.0000   0.0000   0.0000

          k =-0.5000-0.5000 0.0000 (  7316 PWs)   bands (ev):

    -0.9086  -0.9086  -0.9086  -0.9086  -0.4515  -0.4515  -0.4514  -0.4514
     0.2617   0.2617   0.2619   0.2619   1.1482   1.1482   1.1483   1.1483
     1.1929   1.1929   1.1930   1.1930   1.3903   1.3903   1.3903   1.3903
     1.4101   1.4101   1.4101   1.4101   1.7630   1.7630   1.7630   1.7630
     1.7815   1.7815   1.7816   1.7816   2.2885   2.2885   2.2887   2.2887
     2.6544   2.6544   2.6544   2.6544   3.0345   3.0345   3.0345   3.0345
     3.4893   3.4893   3.4894   3.4894   3.5536   3.5536   3.5536   3.5536
     3.7149   3.7149   3.7149   3.7149   5.2581   5.2581   5.2582   5.2582
     5.4553   5.4553   5.4555   5.4555   5.8369   5.8369   5.8371   5.8372
     7.8968   7.8968   7.8968   7.8969   9.7375   9.7376   9.7376

     occupation numbers 
     1.0000   1.0000   1.0000   1.0000   1.0000   1.0000   1.0000   1.0000
     1.0000   1.0000   1.0000   1.0000   1.0000   1.0000   1.0000   1.0000
     1.0000   1.0000   1.0000   1.0000   1.0000   1.0000   1.0000   1.0000
     1.0000   1.0000   1.0000   1.0000   1.0000   1.0000   1.0000   1.0000
     1.0000   1.0000   1.0000   1.0000   1.0000   1.0000   1.0000   1.0000
     1.0000   1.0000   1.0000   1.0000   1.0000   1.0000   1.0000   1.0000
     1.0000   1.0000   1.0000   1.0000   1.0000   1.0000   1.0000   1.0000
     1.0000   1.0000   1.0000   1.0000   1.0000   1.0000   1.0000   1.0000
     1.0000   1.0000   1.0000   1.0000   0.0054   0.0054   0.0052   0.0052
     0.0000   0.0000   0.0000   0.0000   0.0000   0.0000   0.0000

     the Fermi energy is     5.7632 ev

!    total energy              =   -1379.69547203 Ry
     estimated scf accuracy    <          6.7E-09 Ry
     smearing contrib. (-TS)   =      -0.00038409 Ry
     internal energy E=F+TS    =   -1379.69508794 Ry

     The total energy is F=E-TS. E is the sum of the following terms:
     one-electron contribution =   -4933.34258029 Ry
     hartree contribution      =    2585.79180445 Ry
     xc contribution           =    -746.45687546 Ry
     ewald contribution        =    1714.31256336 Ry

     convergence has been achieved in   8 iterations

     negative rho (up, down):  1.738E-05 0.000E+00

     Forces acting on atoms (cartesian axes, Ry/au):

     atom    1 type  1   force =     0.00000000    0.00000000    0.00562595
     atom    2 type  1   force =     0.00000000    0.00000000   -0.00035514
     atom    3 type  1   force =     0.00000000    0.00000000    0.00160603
     atom    4 type  1   force =     0.00000000    0.00000000   -0.00159811
     atom    5 type  1   force =     0.00000000    0.00000000    0.00035791
     atom    6 type  1   force =     0.00000000    0.00000000   -0.00563501
     atom    7 type  1   force =     0.00000000    0.00000000   -0.00159811
     atom    8 type  1   force =     0.00000000    0.00000000    0.00035791
     atom    9 type  1   force =     0.00000000    0.00000000   -0.00563501
     atom   10 type  1   force =     0.00000000    0.00000000    0.00563936
     atom   11 type  1   force =     0.00000000    0.00000000   -0.00035462
     atom   12 type  1   force =     0.00000000    0.00000000    0.00158884
     The non-local contrib.  to forces
     atom    1 type  1   force =     0.00000000    0.00000000    0.00812824
     atom    2 type  1   force =     0.00000000    0.00000000   -0.00287334
     atom    3 type  1   force =     0.00000000    0.00000000    0.01728701
     atom    4 type  1   force =     0.00000000    0.00000000   -0.01726966
     atom    5 type  1   force =     0.00000000    0.00000000    0.00287781
     atom    6 type  1   force =     0.00000000    0.00000000   -0.00811563
     atom    7 type  1   force =     0.00000000    0.00000000   -0.01726966
     atom    8 type  1   force =     0.00000000    0.00000000    0.00287781
     atom    9 type  1   force =     0.00000000    0.00000000   -0.00811563
     atom   10 type  1   force =     0.00000000    0.00000000    0.00812907
     atom   11 type  1   force =     0.00000000    0.00000000   -0.00287383
     atom   12 type  1   force =     0.00000000    0.00000000    0.01729064
     The ionic contribution  to forces
     atom    1 type  1   force =    -0.00000000   -0.00000000 -106.96089400
     atom    2 type  1   force =     0.00000000    0.00000000  -21.72037774
     atom    3 type  1   force =     0.00000000    0.00000000   65.21485732
     atom    4 type  1   force =    -0.00000000    0.00000000  -65.21465608
     atom    5 type  1   force =     0.00000000   -0.00000000   21.72366400
     atom    6 type  1   force =     0.00000000   -0.00000000  106.95748351
     atom    7 type  1   force =     0.00000000   -0.00000000  -65.21465608
     atom    8 type  1   force =    -0.00000000    0.00000000   21.72366400
     atom    9 type  1   force =    -0.00000000    0.00000000  106.95748351
     atom   10 type  1   force =     0.00000000    0.00000000 -106.96076499
     atom   11 type  1   force =     0.00000000    0.00000000  -21.72037670
     atom   12 type  1   force =     0.00000000    0.00000000   65.21457324
     The local contribution  to forces
     atom    1 type  1   force =     0.00000000    0.00000000  106.93429186
     atom    2 type  1   force =     0.00000000    0.00000000   21.72377481
     atom    3 type  1   force =     0.00000000    0.00000000  -65.23380486
     atom    4 type  1   force =     0.00000000    0.00000000   65.23356348
     atom    5 type  1   force =     0.00000000    0.00000000  -21.72698037
     atom    6 type  1   force =     0.00000000    0.00000000 -106.93095768
     atom    7 type  1   force =     0.00000000    0.00000000   65.23356348
     atom    8 type  1   force =     0.00000000    0.00000000  -21.72698037
     atom    9 type  1   force =     0.00000000    0.00000000 -106.93095768
     atom   10 type  1   force =     0.00000000    0.00000000  106.93415833
     atom   11 type  1   force =     0.00000000    0.00000000   21.72377374
     atom   12 type  1   force =     0.00000000    0.00000000  -65.23351956
     The core correction contribution to forces
     atom    1 type  1   force =     0.00000000   -0.00000000    0.02419074
     atom    2 type  1   force =    -0.00000000    0.00000000   -0.00085106
     atom    3 type  1   force =    -0.00000000   -0.00000000    0.00321365
     atom    4 type  1   force =    -0.00000000   -0.00000000   -0.00320515
     atom    5 type  1   force =    -0.00000000    0.00000000    0.00084555
     atom    6 type  1   force =    -0.00000000    0.00000000   -0.02417534
     atom    7 type  1   force =    -0.00000000   -0.00000000   -0.00320515
     atom    8 type  1   force =     0.00000000    0.00000000    0.00084555
     atom    9 type  1   force =     0.00000000   -0.00000000   -0.02417534
     atom   10 type  1   force =     0.00000000    0.00000000    0.02420834
     atom   11 type  1   force =    -0.00000000   -0.00000000   -0.00085026
     atom   12 type  1   force =    -0.00000000   -0.00000000    0.00319144
     The Hubbard contrib.    to forces
     atom    1 type  1   force =     0.00000000    0.00000000    0.00000000
     atom    2 type  1   force =     0.00000000    0.00000000    0.00000000
     atom    3 type  1   force =     0.00000000    0.00000000    0.00000000
     atom    4 type  1   force =     0.00000000    0.00000000    0.00000000
     atom    5 type  1   force =     0.00000000    0.00000000    0.00000000
     atom    6 type  1   force =     0.00000000    0.00000000    0.00000000
[...]
     1.0000   1.0000   1.0000   1.0000   1.0000   1.0000   1.0000   1.0000
     1.0000   1.0000   1.0000   1.0000   1.0000   1.0000   1.0000   1.0000
     1.0000   1.0000   0.9999   0.9999   0.0000   0.0000   0.0000   0.0000
     0.0000   0.0000   0.0000   0.0000   0.0000   0.0000   0.0000

          k = 0.2500 0.2500 0.0000 (  7324 PWs)   bands (ev):

    -2.1248  -1.5843  -0.8936  -0.3967  -0.2870  -0.2868  -0.1995  -0.1993
    -0.0762  -0.0333   0.0308   0.0312   0.3429   0.3973   0.3973   0.6922
     0.7735   0.7739   1.0509   1.0570   1.0574   1.1969   1.3447   1.4298
     1.5078   1.5631   1.6035   1.6505   1.6891   1.6892   1.7341   1.7860
     1.7864   1.8542   1.8595   2.0966   2.2411   2.2412   2.3091   2.3124
     2.4287   2.4290   2.5099   2.5561   2.6208   2.6209   2.9464   2.9469
     3.0045   3.1364   3.1364   3.1616   3.2409   3.4395   3.4396   3.4684
     3.7247   3.7292   3.7293   3.7935   3.8470   3.8470   3.8738   4.2646
     5.9643   6.0377   6.0377   6.7803   6.7803   7.7926   7.7926   7.9029
     8.9694   8.9695   9.6979  10.1247  10.5034  10.5035  11.0471

     occupation numbers 
     1.0000   1.0000   1.0000   1.0000   1.0000   1.0000   1.0000   1.0000
     1.0000   1.0000   1.0000   1.0000   1.0000   1.0000   1.0000   1.0000
     1.0000   1.0000   1.0000   1.0000   1.0000   1.0000   1.0000   1.0000
     1.0000   1.0000   1.0000   1.0000   1.0000   1.0000   1.0000   1.0000
     1.0000   1.0000   1.0000   1.0000   1.0000   1.0000   1.0000   1.0000
     1.0000   1.0000   1.0000   1.0000   1.0000   1.0000   1.0000   1.0000
     1.0000   1.0000   1.0000   1.0000   1.0000   1.0000   1.0000   1.0000
     1.0000   1.0000   1.0000   1.0000   1.0000   1.0000   1.0000   1.0000
     0.0000   0.0000   0.0000   0.0000   0.0000   0.0000   0.0000   0.0000
     0.0000   0.0000   0.0000   0.0000   0.0000   0.0000   0.0000

          k = 0.2500-0.5000 0.0000 (  7340 PWs)   bands (ev):

    -0.8707  -0.8706  -0.8079  -0.8078  -0.5603  -0.5603  -0.2348  -0.2348
     0.2243   0.2244   0.4229   0.4230   0.6086   0.6088   0.8347   0.8349
     0.9631   0.9631   1.1511   1.1513   1.1670   1.1670   1.2845   1.2846
     1.3802   1.3802   1.5628   1.5629   1.6894   1.6895   1.7619   1.7619
     1.7808   1.7810   1.8900   1.8900   2.0471   2.0474   2.0918   2.0919
     2.3951   2.3951   2.4468   2.4470   2.6668   2.6669   2.9656   2.9657
     3.1165   3.1168   3.1954   3.1959   3.4976   3.4977   3.5270   3.5271
     3.5940   3.5942   3.5994   3.5996   3.8367   3.8368   3.9581   3.9582
     4.6068   4.6070   5.8812   5.8813   7.6409   7.6409   7.8718   7.8719
     8.6848   8.6848   9.3607   9.3609  10.2165  10.2168  11.0774

     occupation numbers 
     1.0000   1.0000   1.0000   1.0000   1.0000   1.0000   1.0000   1.0000
     1.0000   1.0000   1.0000   1.0000   1.0000   1.0000   1.0000   1.0000
     1.0000   1.0000   1.0000   1.0000   1.0000   1.0000   1.0000   1.0000
     1.0000   1.0000   1.0000   1.0000   1.0000   1.0000   1.0000   1.0000
     1.0000   1.0000   1.0000   1.0000   1.0000   1.0000   1.0000   1.0000
     1.0000   1.0000   1.0000   1.0000   1.0000   1.0000   1.0000   1.0000
     1.0000   1.0000   1.0000   1.0000   1.0000   1.0000   1.0000   1.0000
     1.0000   1.0000   1.0000   1.0000   1.0000   1.0000   1.0000   1.0000
     1.0000   1.0000   0.0000   0.0000   0.0000   0.0000   0.0000   0.0000
     0.0000   0.0000   0.0000   0.0000   0.0000   0.0000   0.0000

          k =-0.5000-0.5000 0.0000 (  7316 PWs)   bands (ev):

    -0.9943  -0.9942  -0.9942  -0.9942  -0.5407  -0.5407  -0.5405  -0.5405
     0.1923   0.1923   0.1927   0.1927   1.1186   1.1186   1.1186   1.1187
     1.1660   1.1661   1.1662   1.1662   1.3219   1.3221   1.3221   1.3222
     1.3815   1.3815   1.3816   1.3816   1.6779   1.6780   1.6780   1.6780
     1.7473   1.7474   1.7474   1.7477   2.2297   2.2297   2.2298   2.2302
     2.6152   2.6152   2.6152   2.6154   3.0112   3.0114   3.0115   3.0115
     3.5024   3.5024   3.5025   3.5025   3.5323   3.5325   3.5325   3.5326
     3.7366   3.7366   3.7367   3.7367   5.2199   5.2203   5.2203   5.2206
     5.4236   5.4237   5.4237   5.4243   5.8069   5.8075   5.8075   5.8077
     7.9248   7.9255   7.9255   7.9258   9.8220   9.8221   9.8223

     occupation numbers 
     1.0000   1.0000   1.0000   1.0000   1.0000   1.0000   1.0000   1.0000
     1.0000   1.0000   1.0000   1.0000   1.0000   1.0000   1.0000   1.0000
     1.0000   1.0000   1.0000   1.0000   1.0000   1.0000   1.0000   1.0000
     1.0000   1.0000   1.0000   1.0000   1.0000   1.0000   1.0000   1.0000
     1.0000   1.0000   1.0000   1.0000   1.0000   1.0000   1.0000   1.0000
     1.0000   1.0000   1.0000   1.0000   1.0000   1.0000   1.0000   1.0000
     1.0000   1.0000   1.0000   1.0000   1.0000   1.0000   1.0000   1.0000
     1.0000   1.0000   1.0000   1.0000   1.0000   1.0000   1.0000   1.0000
     1.0000   1.0000   1.0000   1.0000   0.0634   0.0607   0.0607   0.0601
     0.0000   0.0000   0.0000   0.0000   0.0000   0.0000   0.0000

     the Fermi energy is     5.7628 ev

!    total energy              =   -1379.69671653 Ry
     estimated scf accuracy    <          1.0E-09 Ry
     smearing contrib. (-TS)   =      -0.00050389 Ry
     internal energy E=F+TS    =   -1379.69621263 Ry

     The total energy is F=E-TS. E is the sum of the following terms:
     one-electron contribution =   -5076.82742058 Ry
     hartree contribution      =    2657.40952080 Ry
     xc contribution           =    -746.54661102 Ry
     ewald contribution        =    1786.26829817 Ry

     convergence has been achieved in   8 iterations

     negative rho (up, down):  2.272E-05 0.000E+00

     Forces acting on atoms (cartesian axes, Ry/au):

     atom    1 type  1   force =     0.00000000    0.00000000    0.00007196
     atom    2 type  1   force =     0.00000000    0.00000000    0.00043673
     atom    3 type  1   force =     0.00000000    0.00000000    0.00017450
     atom    4 type  1   force =     0.00000000    0.00000000   -0.00020222
     atom    5 type  1   force =     0.00000000    0.00000000   -0.00046461
     atom    6 type  1   force =     0.00000000    0.00000000    0.00000115
     atom    7 type  1   force =     0.00000000    0.00000000   -0.00020222
     atom    8 type  1   force =     0.00000000    0.00000000   -0.00046461
     atom    9 type  1   force =     0.00000000    0.00000000    0.00000115
     atom   10 type  1   force =     0.00000000    0.00000000    0.00004398
     atom   11 type  1   force =     0.00000000    0.00000000    0.00041399
     atom   12 type  1   force =     0.00000000    0.00000000    0.00019022
     The non-local contrib.  to forces
     atom    1 type  1   force =     0.00000000    0.00000000    0.01045984
     atom    2 type  1   force =     0.00000000    0.00000000   -0.00283462
     atom    3 type  1   force =     0.00000000    0.00000000    0.01563345
     atom    4 type  1   force =     0.00000000    0.00000000   -0.01571192
     atom    5 type  1   force =     0.00000000    0.00000000    0.00282861
     atom    6 type  1   force =     0.00000000    0.00000000   -0.01048557
     atom    7 type  1   force =     0.00000000    0.00000000   -0.01571192
     atom    8 type  1   force =     0.00000000    0.00000000    0.00282861
     atom    9 type  1   force =     0.00000000    0.00000000   -0.01048557
     atom   10 type  1   force =     0.00000000    0.00000000    0.01048668
     atom   11 type  1   force =     0.00000000    0.00000000   -0.00282768
     atom   12 type  1   force =     0.00000000    0.00000000    0.01573103
     The ionic contribution  to forces
     atom    1 type  1   force =    -0.00000000   -0.00000000 -108.57600490
     atom    2 type  1   force =     0.00000000    0.00000000  -21.97439307
     atom    3 type  1   force =    -0.00000000    0.00000000   66.09692894
     atom    4 type  1   force =     0.00000000   -0.00000000  -66.09465419
     atom    5 type  1   force =    -0.00000000    0.00000000   21.96948970
     atom    6 type  1   force =    -0.00000000   -0.00000000  108.57986557
     atom    7 type  1   force =    -0.00000000    0.00000000  -66.09465419
     atom    8 type  1   force =     0.00000000   -0.00000000   21.96948970
     atom    9 type  1   force =    -0.00000000    0.00000000  108.57986557
     atom   10 type  1   force =    -0.00000000   -0.00000000 -108.57197509
     atom   11 type  1   force =     0.00000000    0.00000000  -21.97474741
     atom   12 type  1   force =     0.00000000    0.00000000   66.09078936
     The local contribution  to forces
     atom    1 type  1   force =    -0.00000000    0.00000000  108.54008343
     atom    2 type  1   force =     0.00000000   -0.00000000   21.97853748
     atom    3 type  1   force =     0.00000000    0.00000000  -66.11621014
     atom    4 type  1   force =    -0.00000000    0.00000000   66.11394451
     atom    5 type  1   force =    -0.00000000   -0.00000000  -21.97367569
     atom    6 type  1   force =    -0.00000000    0.00000000 -108.54379917
     atom    7 type  1   force =     0.00000000   -0.00000000   66.11394451
     atom    8 type  1   force =    -0.00000000   -0.00000000  -21.97367569
     atom    9 type  1   force =     0.00000000    0.00000000 -108.54379917
     atom   10 type  1   force =     0.00000000    0.00000000  108.53594087
     atom   11 type  1   force =    -0.00000000   -0.00000000   21.97889259
     atom   12 type  1   force =    -0.00000000   -0.00000000  -66.11008296
     The core correction contribution to forces
     atom    1 type  1   force =    -0.00000000    0.00000000    0.02550815
     atom    2 type  1   force =    -0.00000000   -0.00000000   -0.00085627
     atom    3 type  1   force =    -0.00000000   -0.00000000    0.00382580
     atom    4 type  1   force =    -0.00000000    0.00000000   -0.00379020
     atom    5 type  1   force =    -0.00000000   -0.00000000    0.00085265
     atom    6 type  1   force =     0.00000000    0.00000000   -0.02554797
     atom    7 type  1   force =     0.00000000   -0.00000000   -0.00379020
     atom    8 type  1   force =    -0.00000000    0.00000000    0.00085265
     atom    9 type  1   force =     0.00000000   -0.00000000   -0.02554797
     atom   10 type  1   force =     0.00000000    0.00000000    0.02556126
     atom   11 type  1   force =    -0.00000000   -0.00000000   -0.00088625
     atom   12 type  1   force =    -0.00000000   -0.00000000    0.00375891
     The Hubbard contrib.    to forces
     atom    1 type  1   force =     0.00000000    0.00000000    0.00000000
     atom    2 type  1   force =     0.00000000    0.00000000    0.00000000
     atom    3 type  1   force =     0.00000000    0.00000000    0.00000000
     atom    4 type  1   force =     0.00000000    0.00000000    0.00000000
     atom    5 type  1   force =     0.00000000    0.00000000    0.00000000
     atom    6 type  1   force =     0.00000000    0.00000000    0.00000000
     atom    7 type  1   force =     0.00000000    0.00000000    0.00000000
     atom    8 type  1   force =     0.00000000    0.00000000    0.00000000
     atom    9 type  1   force =     0.00000000    0.00000000    0.00000000
     atom   10 type  1   force =     0.00000000    0.00000000    0.00000000
     atom   11 type  1   force =     0.00000000    0.00000000    0.00000000
     atom   12 type  1   force =     0.00000000    0.00000000    0.00000000
     The SCF correction term to forces
     atom    1 type  1   force =    -0.00000000   -0.00000000    0.00002167
     atom    2 type  1   force =     0.00000000    0.00000000   -0.00002055
     atom    3 type  1   force =     0.00000000   -0.00000000   -0.00000730
     atom    4 type  1   force =    -0.00000000   -0.00000000    0.00000581
     atom    5 type  1   force =    -0.00000000   -0.00000000    0.00003636
     atom    6 type  1   force =     0.00000000    0.00000000   -0.00003548
     atom    7 type  1   force =    -0.00000000    0.00000000    0.00000581
     atom    8 type  1   force =     0.00000000    0.00000000    0.00003636
     atom    9 type  1   force =     0.00000000    0.00000000   -0.00003548
     atom   10 type  1   force =    -0.00000000    0.00000000    0.00002651
     atom   11 type  1   force =     0.00000000   -0.00000000   -0.00002101
     atom   12 type  1   force =    -0.00000000   -0.00000000   -0.00000988

     Total force =     0.000974     Total SCF correction =     0.000086


     Computing stress (Cartesian axis) and pressure


     negative rho (up, down):  2.272E-05 0.000E+00
          total   stress  (Ry/bohr**3)                   (kbar)     P=      -14.17
  -0.00014210   0.00000000   0.00000000          -20.90        0.00        0.00
   0.00000000  -0.00014210   0.00000000            0.00      -20.90        0.00
   0.00000000   0.00000000  -0.00000482            0.00        0.00       -0.71

     kinetic stress (kbar)  11190.67      0.00      0.00
                                0.00  11190.67      0.00
                                0.00      0.00  11245.02

     local   stress (kbar)-273675.35     -0.00     -0.00
                               -0.00-273675.35     -0.00
                               -0.00     -0.00 301045.95

     nonloc. stress (kbar)  -7079.34      0.00      0.00
                                0.00  -7079.34      0.00
                                0.00      0.00  -7086.02

     hartree stress (kbar) 143648.82      0.00      0.00
                                0.00 143648.82      0.00
                                0.00      0.00-139421.32

     exc-cor stress (kbar)  28958.53      0.00     -0.00
                                0.00  28958.53      0.00
                               -0.00      0.00  28954.65

     corecor stress (kbar) -33420.36     -0.00      0.00
                               -0.00 -33420.36     -0.00
                                0.00     -0.00 -33426.84

     ewald   stress (kbar) 130356.13     -0.00      0.00
                               -0.00 130356.13      0.00
                                0.00      0.00-161312.16

     hubbard stress (kbar)      0.00      0.00      0.00
                                0.00      0.00      0.00
                                0.00      0.00      0.00

     DFT-D   stress (kbar)      0.00      0.00      0.00
                                0.00      0.00      0.00
                                0.00      0.00      0.00

     XDM     stress (kbar)      0.00      0.00      0.00
                                0.00      0.00      0.00
                                0.00      0.00      0.00

     dft-nl  stress (kbar)      0.00      0.00      0.00
                                0.00      0.00      0.00
                                0.00      0.00      0.00

     TS-vdW  stress (kbar)      0.00      0.00      0.00
                                0.00      0.00      0.00
                                0.00      0.00      0.00


     Energy error            =      1.9E-05
     Gradient error          =      4.6E-04

     bfgs converged in  14 scf cycles and  13 bfgs steps
     (criteria: energy <  1.0E-04 Ry, force <  1.0E-03 Ry/Bohr)

     End of BFGS Geometry Optimization

     Final energy   =   -1379.6967165265 Ry

     File ./surface.bfgs deleted, as requested
Begin final coordinates

ATOMIC_POSITIONS (angstrom)
Au            0.0000000000        0.0000000000        0.0749548220
Au            0.0000000000        0.0000000000        4.1801184956
Au            0.0000000000        0.0000000000        8.3145756127
Au            0.0000000000        2.0856450000        2.1139508475
Au            0.0000000000        2.0856450000        6.2483371513
Au            0.0000000000        2.0856450000       10.3527630311
Au            2.0856450000        0.0000000000        2.1139508475
Au            2.0856450000        0.0000000000        6.2483371513
Au            2.0856450000        0.0000000000       10.3527630311
Au            2.0856450000        2.0856450000        0.0754143543
Au            2.0856450000        2.0856450000        4.1800900398
Au            2.0856450000        2.0856450000        8.3140946160
End final coordinates



     Writing output data file ./surface.save/

     init_run     :      0.97s CPU      1.04s WALL (       1 calls)
     electrons    :    176.29s CPU    185.00s WALL (      14 calls)
     update_pot   :      3.17s CPU      3.22s WALL (      13 calls)
     forces       :      8.01s CPU      8.40s WALL (      14 calls)
     stress       :     32.20s CPU     33.35s WALL (      14 calls)

     Called by init_run:
     wfcinit      :      0.41s CPU      0.41s WALL (       1 calls)
     wfcinit:atom :      0.00s CPU      0.00s WALL (       6 calls)
     wfcinit:wfcr :      0.38s CPU      0.39s WALL (       6 calls)
     potinit      :      0.09s CPU      0.10s WALL (       1 calls)
     hinit0       :      0.22s CPU      0.24s WALL (       1 calls)

     Called by electrons:
     c_bands      :    125.10s CPU    126.77s WALL (     134 calls)
     sum_band     :     33.30s CPU     36.90s WALL (     134 calls)
     v_of_rho     :      3.14s CPU      3.22s WALL (     135 calls)
     v_h          :      0.19s CPU      0.19s WALL (     135 calls)
     v_xc         :      3.56s CPU      3.64s WALL (     163 calls)
     newd         :     15.90s CPU     19.09s WALL (     135 calls)
     mix_rho      :      0.32s CPU      0.32s WALL (     134 calls)

     Called by c_bands:
     init_us_2    :      1.20s CPU      1.24s WALL (    1782 calls)
     cegterg      :    120.56s CPU    122.15s WALL (     804 calls)

     Called by sum_band:
     sum_band:wei :      0.02s CPU      0.02s WALL (     134 calls)
     sum_band:loo :     14.07s CPU     14.31s WALL (     134 calls)
     sum_band:buf :      0.14s CPU      0.15s WALL (     804 calls)
     sum_band:ini :      0.51s CPU      0.52s WALL (     804 calls)
     sum_band:cal :      4.81s CPU      4.85s WALL (     804 calls)
     sum_band:bec :      0.17s CPU      0.18s WALL (     804 calls)
     addusdens    :     13.48s CPU     16.76s WALL (     134 calls)
     addusd:skk   :      0.10s CPU      0.10s WALL (     134 calls)
     addusd:dgemm :      3.41s CPU      6.35s WALL (     134 calls)
     addusd:qvan2 :      8.07s CPU      8.13s WALL (     134 calls)

     Called by *egterg:
     cdiaghg      :     19.34s CPU     19.51s WALL (    2846 calls)
     cegterg:over :     10.95s CPU     11.04s WALL (    2198 calls)
     cegterg:upda :      4.74s CPU      4.79s WALL (    2198 calls)
     cegterg:last :     11.16s CPU     11.25s WALL (    1748 calls)
     cdiaghg:chol :      1.13s CPU      1.14s WALL (    2846 calls)
     cdiaghg:inve :      0.87s CPU      0.88s WALL (    2846 calls)
     cdiaghg:para :      2.15s CPU      2.17s WALL (    5692 calls)
     h_psi        :     63.56s CPU     64.67s WALL (    3008 calls)
     s_psi        :      6.64s CPU      6.70s WALL (    3008 calls)
     g_psi        :      0.12s CPU      0.12s WALL (    2198 calls)

     Called by h_psi:
     h_psi:calbec :     13.91s CPU     14.03s WALL (    3008 calls)
     vloc_psi     :     41.21s CPU     42.12s WALL (    3008 calls)
     add_vuspsi   :      8.19s CPU      8.25s WALL (    3008 calls)

     General routines
     calbec       :     21.61s CPU     21.80s WALL (    4232 calls)
     fft          :      3.16s CPU      3.21s WALL (    2103 calls)
     ffts         :      0.11s CPU      0.11s WALL (     269 calls)
     fftw         :     46.62s CPU     47.65s WALL (  393760 calls)
     interpolate  :      0.20s CPU      0.20s WALL (     135 calls)

     Parallel routines
     fft_scatt_xy :      3.10s CPU      3.16s WALL (  396132 calls)
     fft_scatt_yz :     25.68s CPU     26.25s WALL (  396132 calls)

     PWSCF        :   3m42.55s CPU   3m54.05s WALL


   This run was terminated on:   3:58: 7  10Dec2021            

=------------------------------------------------------------------------------=
   JOB DONE.
=------------------------------------------------------------------------------=
