
     Program PWSCF v.6.7MaX starts on  6Dec2021 at 17:13:42 

     This program is part of the open-source Quantum ESPRESSO suite
     for quantum simulation of materials; please cite
         "P. Giannozzi et al., J. Phys.:Condens. Matter 21 395502 (2009);
         "P. Giannozzi et al., J. Phys.:Condens. Matter 29 465901 (2017);
          URL http://www.quantum-espresso.org", 
     in publications or presentations arising from this work. More details at
     http://www.quantum-espresso.org/quote

     Parallel version (MPI), running on    64 processors

     MPI processes distributed on     1 nodes
     R & G space division:  proc/nbgrp/npool/nimage =      64
     Reading input from au_surface.111.qe.in

     Current dimensions of program PWSCF are:
     Max number of different atomic species (ntypx) = 10
     Max number of k-points (npk) =  40000
     Max angular momentum in pseudopotentials (lmaxx) =  3

     Subspace diagonalization in iterative solution of the eigenvalue problem:
     one sub-group per band group will be used
     scalapack distributed-memory algorithm (size of sub-group:  8*  8 procs)

     Found symmetry operation: I + (  0.0000  0.3333  0.0000)
     This is a supercell, fractional translations are disabled

     Parallelization info
     --------------------
     sticks:   dense  smooth     PW     G-vecs:    dense   smooth      PW
     Min          90      36      9                10796     2730     379
     Max          91      38     10                10806     2734     392
     Sum        5773    2335    637               691331   174887   24635



     bravais-lattice index     =           14
     lattice parameter (alat)  =      16.7215  a.u.
     unit-cell volume          =    7882.0011 (a.u.)^3
     number of atoms/cell      =           27
     number of atomic types    =            1
     number of electrons       =       297.00
     number of Kohn-Sham states=          179
     kinetic-energy cutoff     =      30.0000  Ry
     charge density cutoff     =     300.0000  Ry
     scf convergence threshold =      1.0E-06
     mixing beta               =       0.3000
     number of iterations used =            8  plain     mixing
     energy convergence thresh.=      1.0E-04
     force convergence thresh. =      1.0E-03
     Exchange-correlation= SLA  PW   PBE  PBE
                           (   1   4   3   4   0   0   0)
     nstep                     =           50


     celldm(1)=  16.721506  celldm(2)=   1.000000  celldm(3)=   1.946613
     celldm(4)=   0.000000  celldm(5)=   0.000000  celldm(6)=  -0.500000

     crystal axes: (cart. coord. in units of alat)
               a(1) = (   1.000000   0.000000   0.000000 )  
               a(2) = (  -0.500000   0.866025   0.000000 )  
               a(3) = (   0.000000   0.000000   1.946613 )  

     reciprocal axes: (cart. coord. in units 2 pi/alat)
               b(1) = (  1.000000  0.577350 -0.000000 )  
               b(2) = (  0.000000  1.154701  0.000000 )  
               b(3) = (  0.000000 -0.000000  0.513713 )  


     PseudoPot. # 1 for Au read from file:
     /expanse/lustre/projects/csd622/tpascal/nano110/qe/pseudo/au_pbe_v1.uspp.F.UPF
     MD5 check sum: 9d7f43293ad2c663164586bc4b293ffc
     Pseudo is Ultrasoft + core correction, Zval = 11.0
     Generated by new atomic code, or converted to UPF format
     Using radial grid of  985 points,  7 beta functions with: 
                l(1) =   0
                l(2) =   0
                l(3) =   1
                l(4) =   1
                l(5) =   2
                l(6) =   2
                l(7) =   3
     Q(r) pseudized with  6 coefficients,  rinner =    1.900   1.900   1.900
                                                       1.900   1.900   1.900
                                                       1.900

     atomic species   valence    mass     pseudopotential
        Au            11.00   196.96655     Au( 1.00)

      6 Sym. Ops. (no inversion) found


                                    s                        frac. trans.

      isym =  1     identity                                     

 cryst.   s( 1) = (     1          0          0      )
                  (     0          1          0      )
                  (     0          0          1      )

 cart.    s( 1) = (  1.0000000  0.0000000  0.0000000 )
                  (  0.0000000  1.0000000  0.0000000 )
                  (  0.0000000  0.0000000  1.0000000 )


      isym =  2     120 deg rotation - cryst. axis [0,0,1]       

 cryst.   s( 2) = (     0          1          0      )
                  (    -1         -1          0      )
                  (     0          0          1      )

 cart.    s( 2) = ( -0.5000000 -0.8660254  0.0000000 )
                  (  0.8660254 -0.5000000  0.0000000 )
                  (  0.0000000  0.0000000  1.0000000 )


      isym =  3     120 deg rotation - cryst. axis [0,0,-1]      

 cryst.   s( 3) = (    -1         -1          0      )
                  (     1          0          0      )
                  (     0          0          1      )

 cart.    s( 3) = ( -0.5000000  0.8660254  0.0000000 )
                  ( -0.8660254 -0.5000000  0.0000000 )
                  (  0.0000000  0.0000000  1.0000000 )


      isym =  4     inv. 180 deg rotation - cart. axis [1,0,0]   

 cryst.   s( 4) = (    -1          0          0      )
                  (     1          1          0      )
                  (     0          0          1      )

 cart.    s( 4) = ( -1.0000000  0.0000000  0.0000000 )
                  (  0.0000000  1.0000000  0.0000000 )
                  (  0.0000000  0.0000000  1.0000000 )


      isym =  5     inv. 180 deg rotation - cryst. axis [0,1,0]  

 cryst.   s( 5) = (     1          1          0      )
                  (     0         -1          0      )
                  (     0          0          1      )

 cart.    s( 5) = (  0.5000000  0.8660254  0.0000000 )
                  (  0.8660254 -0.5000000  0.0000000 )
                  (  0.0000000  0.0000000  1.0000000 )


      isym =  6     inv. 180 deg rotation - cryst. axis [1,1,0]  

 cryst.   s( 6) = (     0         -1          0      )
                  (    -1          0          0      )
                  (     0          0          1      )

 cart.    s( 6) = (  0.5000000 -0.8660254  0.0000000 )
                  ( -0.8660254 -0.5000000  0.0000000 )
                  (  0.0000000  0.0000000  1.0000000 )


     point group C_3v (3m)  
     there are  3 classes
     the character table:

       E     2C3   3s_v 
A_1    1.00  1.00  1.00
A_2    1.00  1.00 -1.00
E      2.00 -1.00  0.00

     the symmetry operations in each class and the name of the first element:

     E        1
          identity                                               
     2C3      2    3
          120 deg rotation - cryst. axis [0,0,1]                 
     3s_v     4    5    6
          inv. 180 deg rotation - cart. axis [1,0,0]             

   Cartesian axes

     site n.     atom                  positions (alat units)
         1           Au  tau(   1) = (  -0.0000002   0.1924501   0.5443312  )
         2           Au  tau(   2) = (   0.0000000   0.0000000   0.0000000  )
         3           Au  tau(   3) = (   0.1666668   0.0962249   0.2721652  )
         4           Au  tau(   4) = (  -0.1666668   0.4811252   0.5443312  )
         5           Au  tau(   5) = (  -0.1666666   0.2886751   0.0000000  )
         6           Au  tau(   6) = (   0.0000002   0.3849000   0.2721652  )
         7           Au  tau(   7) = (  -0.3333334   0.7698003   0.5443312  )
         8           Au  tau(   8) = (  -0.3333333   0.5773501   0.0000000  )
         9           Au  tau(   9) = (  -0.1666665   0.6735751   0.2721652  )
        10           Au  tau(  10) = (   0.3333331   0.1924501   0.5443312  )
        11           Au  tau(  11) = (   0.3333333   0.0000000   0.0000000  )
        12           Au  tau(  12) = (   0.5000001   0.0962249   0.2721652  )
        13           Au  tau(  13) = (   0.1666665   0.4811252   0.5443312  )
        14           Au  tau(  14) = (   0.1666666   0.2886751   0.0000000  )
        15           Au  tau(  15) = (   0.3333334   0.3849000   0.2721652  )
        16           Au  tau(  16) = (  -0.0000002   0.7698003   0.5443312  )
        17           Au  tau(  17) = (   0.0000000   0.5773501   0.0000000  )
        18           Au  tau(  18) = (   0.1666668   0.6735751   0.2721652  )
        19           Au  tau(  19) = (   0.6666663   0.1924501   0.5443312  )
        20           Au  tau(  20) = (   0.6666665   0.0000000   0.0000000  )
        21           Au  tau(  21) = (   0.8333333   0.0962249   0.2721652  )
        22           Au  tau(  22) = (   0.4999997   0.4811252   0.5443312  )
        23           Au  tau(  23) = (   0.4999999   0.2886751   0.0000000  )
        24           Au  tau(  24) = (   0.6666667   0.3849000   0.2721652  )
        25           Au  tau(  25) = (   0.3333331   0.7698003   0.5443312  )
        26           Au  tau(  26) = (   0.3333333   0.5773501   0.0000000  )
        27           Au  tau(  27) = (   0.5000001   0.6735751   0.2721652  )

   Crystallographic axes

     site n.     atom                  positions (cryst. coord.)
         1           Au  tau(   1) = (  0.1111110  0.2222223  0.2796299  )
         2           Au  tau(   2) = (  0.0000000  0.0000000  0.0000000  )
         3           Au  tau(   3) = (  0.2222223  0.1111110  0.1398147  )
         4           Au  tau(   4) = (  0.1111110  0.5555555  0.2796299  )
         5           Au  tau(   5) = ( -0.0000000  0.3333333  0.0000000  )
         6           Au  tau(   6) = (  0.2222223  0.4444442  0.1398147  )
         7           Au  tau(   7) = (  0.1111110  0.8888888  0.2796299  )
         8           Au  tau(   8) = (  0.0000000  0.6666665  0.0000000  )
         9           Au  tau(   9) = (  0.2222223  0.7777775  0.1398147  )
        10           Au  tau(  10) = (  0.4444442  0.2222223  0.2796299  )
        11           Au  tau(  11) = (  0.3333333  0.0000000  0.0000000  )
        12           Au  tau(  12) = (  0.5555555  0.1111110  0.1398147  )
        13           Au  tau(  13) = (  0.4444442  0.5555555  0.2796299  )
        14           Au  tau(  14) = (  0.3333333  0.3333333  0.0000000  )
        15           Au  tau(  15) = (  0.5555555  0.4444442  0.1398147  )
        16           Au  tau(  16) = (  0.4444442  0.8888888  0.2796299  )
        17           Au  tau(  17) = (  0.3333333  0.6666665  0.0000000  )
        18           Au  tau(  18) = (  0.5555555  0.7777775  0.1398147  )
        19           Au  tau(  19) = (  0.7777775  0.2222223  0.2796299  )
        20           Au  tau(  20) = (  0.6666665  0.0000000  0.0000000  )
        21           Au  tau(  21) = (  0.8888888  0.1111110  0.1398147  )
        22           Au  tau(  22) = (  0.7777775  0.5555555  0.2796299  )
        23           Au  tau(  23) = (  0.6666665  0.3333333  0.0000000  )
        24           Au  tau(  24) = (  0.8888888  0.4444442  0.1398147  )
        25           Au  tau(  25) = (  0.7777775  0.8888888  0.2796299  )
        26           Au  tau(  26) = (  0.6666665  0.6666665  0.0000000  )
        27           Au  tau(  27) = (  0.8888888  0.7777775  0.1398147  )

     number of k points=     4  Gaussian smearing, width (Ry)=  0.0030
                       cart. coord. in units 2pi/alat
        k(    1) = (   0.0000000   0.0000000   0.0000000), wk =   0.1250000
        k(    2) = (   0.0000000   0.2886751   0.0000000), wk =   0.7500000
        k(    3) = (   0.0000000  -0.5773503   0.0000000), wk =   0.3750000
        k(    4) = (   0.2500000   0.4330127   0.0000000), wk =   0.7500000

                       cryst. coord.
        k(    1) = (   0.0000000   0.0000000   0.0000000), wk =   0.1250000
        k(    2) = (   0.0000000   0.2500000   0.0000000), wk =   0.7500000
        k(    3) = (   0.0000000  -0.5000000   0.0000000), wk =   0.3750000
        k(    4) = (   0.2500000   0.2500000   0.0000000), wk =   0.7500000

     Dense  grid:   691331 G-vectors     FFT dimensions: (  96,  96, 180)

     Smooth grid:   174887 G-vectors     FFT dimensions: (  60,  60, 120)

     Dynamical RAM for                 wfc:       0.93 MB

     Dynamical RAM for     wfc (w. buffer):       4.66 MB

     Dynamical RAM for           str. fact:       0.16 MB

     Dynamical RAM for           local pot:       0.00 MB

     Dynamical RAM for          nlocal pot:       3.51 MB

     Dynamical RAM for                qrad:       2.60 MB

     Dynamical RAM for          rho,v,vnew:       1.13 MB

     Dynamical RAM for               rhoin:       0.38 MB

     Dynamical RAM for            rho*nmix:       2.64 MB

     Dynamical RAM for           G-vectors:       0.64 MB

     Dynamical RAM for          h,s,v(r/c):       0.09 MB

     Dynamical RAM for          <psi|beta>:       1.84 MB

     Dynamical RAM for                 psi:       1.86 MB

     Dynamical RAM for                hpsi:       1.86 MB

     Dynamical RAM for                spsi:       1.86 MB

     Dynamical RAM for      wfcinit/wfcrot:       3.88 MB

     Dynamical RAM for           addusdens:      62.49 MB

     Dynamical RAM for          addusforce:      71.35 MB

     Dynamical RAM for         addusstress:      62.49 MB

     Estimated static dynamical RAM per process >      17.10 MB

     Estimated max dynamical RAM per process >      88.44 MB

     Estimated total dynamical RAM >       5.53 GB

     Check: negative core charge=   -0.000003

     Initial potential from superposition of free atoms

     starting charge  296.99670, renormalised to  297.00000

     negative rho (up, down):  3.262E-05 0.000E+00
     Starting wfcs are  243 randomized atomic wfcs

     total cpu time spent up to now is        1.7 secs

     Self-consistent Calculation

     iteration #  1     ecut=    30.00 Ry     beta= 0.30
     Davidson diagonalization with overlap
     ethr =  1.00E-02,  avg # of iterations =  5.0

     Threshold (ethr) on eigenvalues was too large:
     Diagonalizing with lowered threshold

     Davidson diagonalization with overlap
     ethr =  5.08E-04,  avg # of iterations =  3.2

     negative rho (up, down):  1.919E-05 0.000E+00

     total cpu time spent up to now is        6.0 secs

     total energy              =   -3104.00262121 Ry
     estimated scf accuracy    <       1.68343174 Ry

     iteration #  2     ecut=    30.00 Ry     beta= 0.30
     Davidson diagonalization with overlap
     ethr =  5.67E-04,  avg # of iterations =  2.0

     negative rho (up, down):  3.838E-05 0.000E+00

     total cpu time spent up to now is        8.1 secs

     total energy              =   -3104.09424201 Ry
     estimated scf accuracy    <       0.41216877 Ry

     iteration #  3     ecut=    30.00 Ry     beta= 0.30
     Davidson diagonalization with overlap
     ethr =  1.39E-04,  avg # of iterations =  2.0

     negative rho (up, down):  4.285E-05 0.000E+00

     total cpu time spent up to now is       10.4 secs

     total energy              =   -3104.16199862 Ry
     estimated scf accuracy    <       0.29247916 Ry

     iteration #  4     ecut=    30.00 Ry     beta= 0.30
     Davidson diagonalization with overlap
     ethr =  9.85E-05,  avg # of iterations =  1.8

     negative rho (up, down):  5.545E-05 0.000E+00

     total cpu time spent up to now is       12.4 secs

     total energy              =   -3104.19411672 Ry
     estimated scf accuracy    <       0.01297612 Ry

     iteration #  5     ecut=    30.00 Ry     beta= 0.30
     Davidson diagonalization with overlap
     ethr =  4.37E-06,  avg # of iterations =  6.5

     negative rho (up, down):  6.406E-05 0.000E+00

     total cpu time spent up to now is       15.3 secs

     total energy              =   -3104.19513581 Ry
     estimated scf accuracy    <       0.00398252 Ry

     iteration #  6     ecut=    30.00 Ry     beta= 0.30
     Davidson diagonalization with overlap
     ethr =  1.34E-06,  avg # of iterations =  2.0

     negative rho (up, down):  6.611E-05 0.000E+00

     total cpu time spent up to now is       17.3 secs

     total energy              =   -3104.19531078 Ry
     estimated scf accuracy    <       0.00023633 Ry

     iteration #  7     ecut=    30.00 Ry     beta= 0.30
     Davidson diagonalization with overlap
     ethr =  7.96E-08,  avg # of iterations =  4.0

     negative rho (up, down):  6.786E-05 0.000E+00

     total cpu time spent up to now is       20.2 secs

     total energy              =   -3104.19538791 Ry
     estimated scf accuracy    <       0.00024910 Ry

     iteration #  8     ecut=    30.00 Ry     beta= 0.30
     Davidson diagonalization with overlap
     ethr =  7.96E-08,  avg # of iterations =  1.0

     negative rho (up, down):  6.790E-05 0.000E+00

     total cpu time spent up to now is       22.0 secs

     total energy              =   -3104.19539951 Ry
     estimated scf accuracy    <       0.00002782 Ry

     iteration #  9     ecut=    30.00 Ry     beta= 0.30
     Davidson diagonalization with overlap
     ethr =  9.37E-09,  avg # of iterations =  4.0

     negative rho (up, down):  6.940E-05 0.000E+00

     total cpu time spent up to now is       24.9 secs

     total energy              =   -3104.19541013 Ry
     estimated scf accuracy    <       0.00000292 Ry

     iteration # 10     ecut=    30.00 Ry     beta= 0.30
     Davidson diagonalization with overlap
     ethr =  9.83E-10,  avg # of iterations =  4.0

     negative rho (up, down):  7.040E-05 0.000E+00

     total cpu time spent up to now is       27.8 secs

     total energy              =   -3104.19541079 Ry
     estimated scf accuracy    <       0.00000108 Ry

     iteration # 11     ecut=    30.00 Ry     beta= 0.30
     Davidson diagonalization with overlap
     ethr =  3.65E-10,  avg # of iterations =  2.0

     negative rho (up, down):  7.258E-05 0.000E+00

     total cpu time spent up to now is       29.9 secs

     End of self-consistent calculation

          k = 0.0000 0.0000 0.0000 ( 21879 PWs)   bands (ev):

    -5.6237  -4.0405  -3.6864  -3.5608  -3.5608  -3.5607  -3.5607  -3.5607
    -3.5607  -2.9536  -2.9536  -2.9535  -2.9535  -2.9535  -2.9535  -2.7144
    -2.7144  -2.7144  -2.7143  -2.7143  -2.7143  -2.3624  -2.3624  -2.3624
    -2.3624  -2.3624  -2.3624  -2.3550  -2.3550  -2.3198  -2.3198  -2.3198
    -2.3198  -1.8908  -1.8908  -1.8908  -1.8908  -1.5440  -1.5440  -1.5440
    -1.5440  -1.5440  -1.5440  -1.4310  -1.4310  -1.3977  -1.3306  -1.3306
    -1.3306  -1.3305  -1.3305  -1.3305  -1.1354  -1.1354  -1.0838  -1.0838
    -0.9467  -0.9135  -0.9134  -0.9134  -0.9134  -0.9134  -0.9133  -0.9022
    -0.9022  -0.8859  -0.8859  -0.8859  -0.8859  -0.8859  -0.8859  -0.7952
    -0.7952  -0.7952  -0.7952  -0.7877  -0.7877  -0.7747  -0.7747  -0.2262
    -0.2262  -0.2262  -0.2262  -0.2262  -0.2262  -0.1017  -0.1017  -0.1017
    -0.1017  -0.0312  -0.0312  -0.0312  -0.0312  -0.0312  -0.0312  -0.0293
    -0.0293   0.0605   0.0605   0.0605   0.0606   0.0606   0.0606   0.3667
     0.3667   0.3667   0.3668   0.3668   0.3668   0.4144   0.4144   0.4144
     0.4144   0.4144   0.4144   0.4750   0.4750   0.6390   0.6390   0.6390
     0.6391   0.6391   0.6391   0.6940   0.6941   0.6941   0.6941   0.6941
     0.6941   0.6991   0.6991   0.6991   0.6991   0.7919   0.7919   0.9011
     0.9011   0.9664   0.9664   0.9664   0.9664   0.9664   0.9665   1.3250
     1.3250   1.3251   1.3251   1.3251   1.3251   1.4231   3.4441   3.8389
     3.8389   3.8389   3.8389   3.8390   3.8390   5.6145   5.6145   5.8693
     5.8693   5.8693   5.8693   7.2284   7.5664   7.5664   7.5664   7.5664
     7.5664   7.5664   8.0307   8.0307   8.0580   8.0580   8.0580   8.0580
     8.3455   8.7530   9.2764

     occupation numbers 
     1.0000   1.0000   1.0000   1.0000   1.0000   1.0000   1.0000   1.0000
     1.0000   1.0000   1.0000   1.0000   1.0000   1.0000   1.0000   1.0000
     1.0000   1.0000   1.0000   1.0000   1.0000   1.0000   1.0000   1.0000
     1.0000   1.0000   1.0000   1.0000   1.0000   1.0000   1.0000   1.0000
     1.0000   1.0000   1.0000   1.0000   1.0000   1.0000   1.0000   1.0000
     1.0000   1.0000   1.0000   1.0000   1.0000   1.0000   1.0000   1.0000
     1.0000   1.0000   1.0000   1.0000   1.0000   1.0000   1.0000   1.0000
     1.0000   1.0000   1.0000   1.0000   1.0000   1.0000   1.0000   1.0000
     1.0000   1.0000   1.0000   1.0000   1.0000   1.0000   1.0000   1.0000
     1.0000   1.0000   1.0000   1.0000   1.0000   1.0000   1.0000   1.0000
     1.0000   1.0000   1.0000   1.0000   1.0000   1.0000   1.0000   1.0000
     1.0000   1.0000   1.0000   1.0000   1.0000   1.0000   1.0000   1.0000
     1.0000   1.0000   1.0000   1.0000   1.0000   1.0000   1.0000   1.0000
     1.0000   1.0000   1.0000   1.0000   1.0000   1.0000   1.0000   1.0000
     1.0000   1.0000   1.0000   1.0000   1.0000   1.0000   1.0000   1.0000
     1.0000   1.0000   1.0000   1.0000   1.0000   1.0000   1.0000   1.0000
     1.0000   1.0000   1.0000   1.0000   1.0000   1.0000   1.0000   1.0000
     1.0000   1.0000   1.0000   1.0000   1.0000   1.0000   1.0000   1.0000
     1.0000   1.0000   1.0000   1.0000   1.0000   1.0000   0.0000   0.0000
     0.0000   0.0000   0.0000   0.0000   0.0000   0.0000   0.0000   0.0000
     0.0000   0.0000   0.0000   0.0000   0.0000   0.0000   0.0000   0.0000
     0.0000   0.0000   0.0000   0.0000   0.0000   0.0000   0.0000   0.0000
     0.0000   0.0000   0.0000

          k = 0.0000 0.2887 0.0000 ( 21901 PWs)   bands (ev):

    -5.4236  -4.1092  -3.8424  -3.6426  -3.6426  -3.5111  -3.4333  -3.3166
    -3.3166  -3.0952  -2.9227  -2.9227  -2.9154  -2.8074  -2.7791  -2.7791
    -2.7041  -2.7041  -2.6778  -2.5879  -2.5879  -2.5850  -2.5788  -2.5788
    -2.5027  -2.5027  -2.3569  -2.3569  -2.2702  -2.2701  -2.1078  -2.1078
    -2.0657  -2.0185  -2.0185  -1.7513  -1.7513  -1.7513  -1.6584  -1.6584
    -1.6077  -1.6061  -1.6061  -1.5502  -1.4425  -1.4425  -1.4175  -1.3951
    -1.3714  -1.3714  -1.3158  -1.3158  -1.3122  -1.3038  -1.2712  -1.1469
    -1.1469  -1.0553  -1.0553  -1.0186  -1.0186  -1.0065  -0.9957  -0.9644
    -0.9471  -0.8966  -0.8959  -0.8959  -0.8726  -0.8726  -0.8221  -0.7795
    -0.7610  -0.7610  -0.7033  -0.7033  -0.6993  -0.6079  -0.5795  -0.5236
    -0.5236  -0.5039  -0.5039  -0.4509  -0.4478  -0.4478  -0.2264  -0.2264
    -0.1933  -0.1933  -0.1409  -0.1409  -0.1349  -0.0710  -0.0669  -0.0063
    -0.0063   0.0298   0.0298   0.0661   0.0847   0.0910   0.0910   0.1374
     0.1374   0.1489   0.1719   0.2495   0.3312   0.3312   0.3468   0.3468
     0.4157   0.4699   0.5896   0.5896   0.5981   0.5981   0.6152   0.6152
     0.6884   0.6915   0.6915   0.6958   0.7591   0.7850   0.7850   0.8180
     0.8736   0.8784   0.8784   0.8992   0.8992   0.9048   0.9266   0.9710
     0.9710   0.9739   0.9739   1.1513   1.1906   1.2313   1.2313   1.5421
     1.5421   1.6698   1.7443   2.3234   2.3234   2.6733   2.9838   3.5086
     3.5086   3.9268   4.3549   4.3549   4.6240   4.6240   5.0701   5.6511
     5.6511   6.1592   6.1592   6.2925   6.6045   7.1448   7.1448   7.1885
     7.1885   7.3692   7.7614   7.7614   7.8777   7.9911   7.9911   8.4936
     8.5853   8.6941   8.6942

     occupation numbers 
     1.0000   1.0000   1.0000   1.0000   1.0000   1.0000   1.0000   1.0000
     1.0000   1.0000   1.0000   1.0000   1.0000   1.0000   1.0000   1.0000
     1.0000   1.0000   1.0000   1.0000   1.0000   1.0000   1.0000   1.0000
     1.0000   1.0000   1.0000   1.0000   1.0000   1.0000   1.0000   1.0000
     1.0000   1.0000   1.0000   1.0000   1.0000   1.0000   1.0000   1.0000
     1.0000   1.0000   1.0000   1.0000   1.0000   1.0000   1.0000   1.0000
     1.0000   1.0000   1.0000   1.0000   1.0000   1.0000   1.0000   1.0000
     1.0000   1.0000   1.0000   1.0000   1.0000   1.0000   1.0000   1.0000
     1.0000   1.0000   1.0000   1.0000   1.0000   1.0000   1.0000   1.0000
     1.0000   1.0000   1.0000   1.0000   1.0000   1.0000   1.0000   1.0000
     1.0000   1.0000   1.0000   1.0000   1.0000   1.0000   1.0000   1.0000
     1.0000   1.0000   1.0000   1.0000   1.0000   1.0000   1.0000   1.0000
     1.0000   1.0000   1.0000   1.0000   1.0000   1.0000   1.0000   1.0000
     1.0000   1.0000   1.0000   1.0000   1.0000   1.0000   1.0000   1.0000
     1.0000   1.0000   1.0000   1.0000   1.0000   1.0000   1.0000   1.0000
     1.0000   1.0000   1.0000   1.0000   1.0000   1.0000   1.0000   1.0000
     1.0000   1.0000   1.0000   1.0000   1.0000   1.0000   1.0000   1.0000
     1.0000   1.0000   1.0000   1.0000   1.0000   1.0000   1.0000   1.0000
     1.0000   1.0000   1.0000   1.0000   1.0000   1.0000   0.0000   0.0000
     0.0000   0.0000   0.0000   0.0000   0.0000   0.0000   0.0000   0.0000
     0.0000   0.0000   0.0000   0.0000   0.0000   0.0000   0.0000   0.0000
     0.0000   0.0000   0.0000   0.0000   0.0000   0.0000   0.0000   0.0000
     0.0000   0.0000   0.0000

          k = 0.0000-0.5774 0.0000 ( 21828 PWs)   bands (ev):

    -4.8628  -4.8627  -3.6461  -3.6461  -3.4392  -3.3277  -3.3277  -3.1560
    -3.0632  -3.0631  -2.9211  -2.9210  -2.9210  -2.9210  -2.8389  -2.7743
    -2.7743  -2.7743  -2.7742  -2.6674  -2.6054  -2.6054  -2.5559  -2.5559
    -2.5558  -2.5558  -2.2895  -2.2895  -2.2054  -2.2054  -2.0634  -2.0634
    -2.0634  -2.0634  -1.8144  -1.8144  -1.7143  -1.7143  -1.7143  -1.7143
    -1.6817  -1.6817  -1.6336  -1.6080  -1.6079  -1.4978  -1.4978  -1.4929
    -1.4136  -1.4136  -1.4136  -1.4136  -1.3518  -1.3518  -1.3420  -1.3420
    -1.2440  -1.2440  -1.1990  -1.1990  -1.1990  -1.1990  -1.0431  -1.0430
    -1.0420  -0.9898  -0.9897  -0.9018  -0.9018  -0.8129  -0.8129  -0.8128
    -0.8128  -0.8017  -0.8016  -0.7694  -0.7694  -0.6713  -0.6713  -0.4316
    -0.4299  -0.4298  -0.3134  -0.3134  -0.2937  -0.2937  -0.2937  -0.2937
    -0.2741  -0.2741  -0.1205  -0.1205  -0.1205  -0.1205  -0.0799  -0.0799
    -0.0799  -0.0799  -0.0762  -0.0761  -0.0533  -0.0533   0.0658   0.0759
     0.0759   0.2275   0.2275   0.2599   0.2599   0.2599   0.2600   0.2828
     0.4416   0.4416   0.5413   0.5413   0.5413   0.5413   0.5875   0.5875
     0.6190   0.6190   0.7175   0.7175   0.7818   0.8323   0.8323   0.8940
     0.8940   0.8940   0.8940   0.9145   0.9146   0.9165   0.9646   1.0981
     1.0981   1.0981   1.0982   1.2556   1.2556   1.3251   1.3537   2.3246
     2.3246   2.8696   2.8696   2.8697   2.8697   3.2369   3.4248   3.4248
     3.9467   3.9467   3.9467   3.9467   4.0625   4.3507   4.9986   4.9987
     5.9620   5.9620   5.9620   5.9620   6.2151   6.8572   6.8572   6.8573
     6.8573   6.9476   6.9986   6.9986   7.7039   7.7906   7.7906   8.2321
     8.2321   8.2322   8.2322

     occupation numbers 
     1.0000   1.0000   1.0000   1.0000   1.0000   1.0000   1.0000   1.0000
     1.0000   1.0000   1.0000   1.0000   1.0000   1.0000   1.0000   1.0000
     1.0000   1.0000   1.0000   1.0000   1.0000   1.0000   1.0000   1.0000
     1.0000   1.0000   1.0000   1.0000   1.0000   1.0000   1.0000   1.0000
     1.0000   1.0000   1.0000   1.0000   1.0000   1.0000   1.0000   1.0000
     1.0000   1.0000   1.0000   1.0000   1.0000   1.0000   1.0000   1.0000
     1.0000   1.0000   1.0000   1.0000   1.0000   1.0000   1.0000   1.0000
     1.0000   1.0000   1.0000   1.0000   1.0000   1.0000   1.0000   1.0000
     1.0000   1.0000   1.0000   1.0000   1.0000   1.0000   1.0000   1.0000
     1.0000   1.0000   1.0000   1.0000   1.0000   1.0000   1.0000   1.0000
     1.0000   1.0000   1.0000   1.0000   1.0000   1.0000   1.0000   1.0000
     1.0000   1.0000   1.0000   1.0000   1.0000   1.0000   1.0000   1.0000
     1.0000   1.0000   1.0000   1.0000   1.0000   1.0000   1.0000   1.0000
     1.0000   1.0000   1.0000   1.0000   1.0000   1.0000   1.0000   1.0000
     1.0000   1.0000   1.0000   1.0000   1.0000   1.0000   1.0000   1.0000
     1.0000   1.0000   1.0000   1.0000   1.0000   1.0000   1.0000   1.0000
     1.0000   1.0000   1.0000   1.0000   1.0000   1.0000   1.0000   1.0000
     1.0000   1.0000   1.0000   1.0000   1.0000   1.0000   1.0000   1.0000
     1.0000   0.1486   0.1486   0.1486   0.1485   0.0000   0.0000   0.0000
     0.0000   0.0000   0.0000   0.0000   0.0000   0.0000   0.0000   0.0000
     0.0000   0.0000   0.0000   0.0000   0.0000   0.0000   0.0000   0.0000
     0.0000   0.0000   0.0000   0.0000   0.0000   0.0000   0.0000   0.0000
     0.0000   0.0000   0.0000

          k = 0.2500 0.4330 0.0000 ( 21853 PWs)   bands (ev):

    -5.0405  -4.3582  -4.3581  -3.4764  -3.2980  -3.2979  -3.1911  -3.0619
    -3.0618  -3.0394  -3.0393  -2.9360  -2.9359  -2.9317  -2.8239  -2.7701
    -2.7701  -2.7088  -2.7087  -2.6595  -2.6595  -2.6288  -2.6280  -2.5817
    -2.5016  -2.5016  -2.4446  -2.4445  -2.2948  -2.1259  -1.9946  -1.9946
    -1.9616  -1.9616  -1.9126  -1.7790  -1.7635  -1.7635  -1.7537  -1.7441
    -1.7283  -1.7282  -1.6439  -1.6439  -1.5541  -1.5541  -1.5012  -1.4824
    -1.4190  -1.4190  -1.4183  -1.3952  -1.3951  -1.3107  -1.2853  -1.1680
    -1.1680  -1.1359  -1.1359  -1.1293  -1.1293  -1.0838  -1.0526  -1.0526
    -1.0090  -0.9965  -0.9634  -0.9306  -0.9306  -0.9020  -0.8387  -0.8324
    -0.8324  -0.7695  -0.7695  -0.7051  -0.6994  -0.6925  -0.6212  -0.6211
    -0.5831  -0.5831  -0.5280  -0.5280  -0.5207  -0.4377  -0.4377  -0.2767
    -0.2006  -0.1400  -0.1330  -0.1210  -0.1210  -0.0806  -0.0806  -0.0503
    -0.0503  -0.0233  -0.0212  -0.0212  -0.0124  -0.0124   0.0204   0.1468
     0.1468   0.1617   0.1874   0.1925   0.1925   0.2715   0.3250   0.3250
     0.4412   0.4413   0.4513   0.4788   0.6307   0.6308   0.6998   0.7429
     0.7464   0.7465   0.7744   0.7745   0.8012   0.8447   0.8447   0.8604
     0.8693   0.8693   0.8812   0.8812   0.8924   0.9635   0.9635   1.0137
     1.0137   1.0273   1.1022   1.1619   1.1620   1.6419   1.6419   2.1646
     2.3597   2.3597   2.7537   2.7538   2.8633   2.9766   2.9767   3.9408
     3.9742   3.9743   4.4645   4.4645   4.4842   4.6827   4.7381   5.2609
     5.2609   5.5732   5.8367   5.8368   5.8675   6.3729   6.3978   6.3979
     6.9180   6.9180   7.5342   7.6502   8.1519   8.1897   8.2125   8.2125
     8.2668   8.2668   8.5615

     occupation numbers 
     1.0000   1.0000   1.0000   1.0000   1.0000   1.0000   1.0000   1.0000
     1.0000   1.0000   1.0000   1.0000   1.0000   1.0000   1.0000   1.0000
     1.0000   1.0000   1.0000   1.0000   1.0000   1.0000   1.0000   1.0000
     1.0000   1.0000   1.0000   1.0000   1.0000   1.0000   1.0000   1.0000
     1.0000   1.0000   1.0000   1.0000   1.0000   1.0000   1.0000   1.0000
     1.0000   1.0000   1.0000   1.0000   1.0000   1.0000   1.0000   1.0000
     1.0000   1.0000   1.0000   1.0000   1.0000   1.0000   1.0000   1.0000
     1.0000   1.0000   1.0000   1.0000   1.0000   1.0000   1.0000   1.0000
     1.0000   1.0000   1.0000   1.0000   1.0000   1.0000   1.0000   1.0000
     1.0000   1.0000   1.0000   1.0000   1.0000   1.0000   1.0000   1.0000
     1.0000   1.0000   1.0000   1.0000   1.0000   1.0000   1.0000   1.0000
     1.0000   1.0000   1.0000   1.0000   1.0000   1.0000   1.0000   1.0000
     1.0000   1.0000   1.0000   1.0000   1.0000   1.0000   1.0000   1.0000
     1.0000   1.0000   1.0000   1.0000   1.0000   1.0000   1.0000   1.0000
     1.0000   1.0000   1.0000   1.0000   1.0000   1.0000   1.0000   1.0000
     1.0000   1.0000   1.0000   1.0000   1.0000   1.0000   1.0000   1.0000
     1.0000   1.0000   1.0000   1.0000   1.0000   1.0000   1.0000   1.0000
     1.0000   1.0000   1.0000   1.0000   1.0000   1.0000   1.0000   1.0000
     1.0000   1.0000   0.9985   0.9985   0.2058   0.0000   0.0000   0.0000
     0.0000   0.0000   0.0000   0.0000   0.0000   0.0000   0.0000   0.0000
     0.0000   0.0000   0.0000   0.0000   0.0000   0.0000   0.0000   0.0000
     0.0000   0.0000   0.0000   0.0000   0.0000   0.0000   0.0000   0.0000
     0.0000   0.0000   0.0000

     the Fermi energy is     2.8396 ev

!    total energy              =   -3104.19541101 Ry
     estimated scf accuracy    <       0.00000032 Ry
     smearing contrib. (-TS)   =      -0.00120555 Ry
     internal energy E=F+TS    =   -3104.19420546 Ry

     The total energy is F=E-TS. E is the sum of the following terms:
     one-electron contribution =   -8574.70157896 Ry
     hartree contribution      =    4525.56809222 Ry
     xc contribution           =   -1678.96717483 Ry
     ewald contribution        =    2623.90645611 Ry

     convergence has been achieved in  11 iterations

     negative rho (up, down):  7.258E-05 0.000E+00

     Forces acting on atoms (cartesian axes, Ry/au):

     atom    1 type  1   force =     0.00000000    0.00003953    0.00283194
     atom    2 type  1   force =     0.00000000    0.00000000   -0.00290304
     atom    3 type  1   force =     0.00002360    0.00001363    0.00004534
     atom    4 type  1   force =     0.00002784    0.00001607    0.00281716
     atom    5 type  1   force =     0.00001388    0.00003545   -0.00288035
     atom    6 type  1   force =     0.00000000    0.00005650    0.00005948
     atom    7 type  1   force =     0.00003424   -0.00001977    0.00283194
     atom    8 type  1   force =     0.00003764   -0.00000571   -0.00288035
     atom    9 type  1   force =     0.00004893   -0.00002825    0.00005948
     atom   10 type  1   force =     0.00000783    0.00000452    0.00283815
     atom   11 type  1   force =     0.00002377   -0.00002974   -0.00288035
     atom   12 type  1   force =     0.00000000   -0.00002870    0.00004908
     atom   13 type  1   force =    -0.00002784    0.00001607    0.00281716
     atom   14 type  1   force =    -0.00001388    0.00003545   -0.00288035
     atom   15 type  1   force =    -0.00002485    0.00001435    0.00004908
     atom   16 type  1   force =     0.00000000   -0.00003214    0.00281716
     atom   17 type  1   force =     0.00000000    0.00000000   -0.00285893
     atom   18 type  1   force =    -0.00004893   -0.00002825    0.00005948
     atom   19 type  1   force =    -0.00000783    0.00000452    0.00283815
     atom   20 type  1   force =    -0.00002377   -0.00002974   -0.00288035
     atom   21 type  1   force =    -0.00002360    0.00001363    0.00004534
     atom   22 type  1   force =     0.00000000   -0.00000904    0.00283815
     atom   23 type  1   force =     0.00000000    0.00000000   -0.00287935
     atom   24 type  1   force =     0.00002485    0.00001435    0.00004908
     atom   25 type  1   force =    -0.00003424   -0.00001977    0.00283194
     atom   26 type  1   force =    -0.00003764   -0.00000571   -0.00288035
     atom   27 type  1   force =     0.00000000   -0.00002726    0.00004534
     The non-local contrib.  to forces
     atom    1 type  1   force =     0.00000000    0.00002174   -0.03775410
     atom    2 type  1   force =     0.00000000   -0.00000000    0.03778071
     atom    3 type  1   force =     0.00001228    0.00000709    0.00010273
     atom    4 type  1   force =     0.00001623    0.00000937   -0.03775661
     atom    5 type  1   force =     0.00000875    0.00002061    0.03779481
     atom    6 type  1   force =     0.00000000    0.00003254    0.00011332
     atom    7 type  1   force =     0.00001883   -0.00001087   -0.03775410
     atom    8 type  1   force =     0.00002222   -0.00000273    0.03779481
     atom    9 type  1   force =     0.00002818   -0.00001627    0.00011332
     atom   10 type  1   force =     0.00000482    0.00000278   -0.03774643
     atom   11 type  1   force =     0.00001348   -0.00001788    0.03779481
     atom   12 type  1   force =     0.00000000   -0.00001423    0.00010473
     atom   13 type  1   force =    -0.00001623    0.00000937   -0.03775661
     atom   14 type  1   force =    -0.00000875    0.00002061    0.03779481
     atom   15 type  1   force =    -0.00001232    0.00000711    0.00010473
     atom   16 type  1   force =     0.00000000   -0.00001875   -0.03775661
     atom   17 type  1   force =     0.00000000    0.00000000    0.03780375
     atom   18 type  1   force =    -0.00002818   -0.00001627    0.00011332
     atom   19 type  1   force =    -0.00000482    0.00000278   -0.03774643
     atom   20 type  1   force =    -0.00001348   -0.00001788    0.03779481
     atom   21 type  1   force =    -0.00001228    0.00000709    0.00010273
     atom   22 type  1   force =     0.00000000   -0.00000556   -0.03774643
     atom   23 type  1   force =     0.00000000   -0.00000000    0.03779810
     atom   24 type  1   force =     0.00001232    0.00000711    0.00010473
     atom   25 type  1   force =    -0.00001883   -0.00001087   -0.03775410
     atom   26 type  1   force =    -0.00002222   -0.00000273    0.03779481
     atom   27 type  1   force =    -0.00000000   -0.00001418    0.00010273
     The ionic contribution  to forces
     atom    1 type  1   force =    -0.00001458   -0.00003005   65.17489701
     atom    2 type  1   force =    -0.00001179   -0.00002451  -65.17492847
     atom    3 type  1   force =    -0.00002092   -0.00003108    0.00004770
     atom    4 type  1   force =    -0.00001550   -0.00000760   65.17489823
     atom    5 type  1   force =    -0.00001235   -0.00000844  -65.17493720
     atom    6 type  1   force =    -0.00002146   -0.00000859    0.00004122
     atom    7 type  1   force =    -0.00001606    0.00000847   65.17488950
     atom    8 type  1   force =    -0.00001326    0.00001401  -65.17493598
     atom    9 type  1   force =    -0.00002199    0.00001389    0.00003474
     atom   10 type  1   force =     0.00000111   -0.00002162   65.17490536
     atom   11 type  1   force =    -0.00000213   -0.00002109  -65.17493598
     atom   12 type  1   force =     0.00000302   -0.00001829    0.00004460
     atom   13 type  1   force =     0.00000019    0.00000083   65.17490658
     atom   14 type  1   force =    -0.00000268   -0.00000502  -65.17494471
     atom   15 type  1   force =     0.00000249    0.00000420    0.00003812
     atom   16 type  1   force =    -0.00000036    0.00001690   65.17489786
     atom   17 type  1   force =    -0.00000360    0.00001742  -65.17494349
     atom   18 type  1   force =     0.00000196    0.00002668    0.00003164
     atom   19 type  1   force =     0.00002007   -0.00001173   65.17490279
     atom   20 type  1   force =     0.00001777   -0.00001066  -65.17493720
     atom   21 type  1   force =     0.00001346   -0.00001398    0.00004615
     atom   22 type  1   force =     0.00001916    0.00001072   65.17490401
     atom   23 type  1   force =     0.00001722    0.00000541  -65.17494593
     atom   24 type  1   force =     0.00001293    0.00000850    0.00003967
     atom   25 type  1   force =     0.00001860    0.00002679   65.17489528
     atom   26 type  1   force =     0.00001630    0.00002786  -65.17494471
     atom   27 type  1   force =     0.00001240    0.00003099    0.00003319
     The local contribution  to forces
     atom    1 type  1   force =     0.00003493   -0.00010134  -65.11326625
     atom    2 type  1   force =    -0.00000000   -0.00000000   65.11327943
     atom    3 type  1   force =    -0.00006363    0.00000275   -0.00016830
     atom    4 type  1   force =    -0.00005272   -0.00004342  -65.11320173
     atom    5 type  1   force =    -0.00006245   -0.00009137   65.11322893
     atom    6 type  1   force =    -0.00003419   -0.00015082   -0.00016103
     atom    7 type  1   force =    -0.00005906    0.00006144  -65.11326625
     atom    8 type  1   force =    -0.00013404    0.00003262   65.11322893
     atom    9 type  1   force =    -0.00020509    0.00014518   -0.00016103
     atom   10 type  1   force =     0.00004914   -0.00001195  -65.11327540
     atom   11 type  1   force =    -0.00004790    0.00009977   65.11322893
     atom   12 type  1   force =    -0.00001101    0.00016030   -0.00017214
     atom   13 type  1   force =     0.00012258   -0.00004342  -65.11320173
     atom   14 type  1   force =     0.00006245   -0.00009137   65.11322893
     atom   15 type  1   force =     0.00009913   -0.00003046   -0.00017214
     atom   16 type  1   force =     0.00003493    0.00010839  -65.11320173
     atom   17 type  1   force =     0.00000000    0.00002734   65.11315580
     atom   18 type  1   force =     0.00013670    0.00014518   -0.00016103
     atom   19 type  1   force =     0.00006807   -0.00001195  -65.11327540
     atom   20 type  1   force =     0.00009527    0.00009977   65.11322893
     atom   21 type  1   force =     0.00004161    0.00000275   -0.00016830
     atom   22 type  1   force =     0.00005861    0.00000444  -65.11327540
     atom   23 type  1   force =     0.00002368    0.00001367   65.11324626
     atom   24 type  1   force =    -0.00012114   -0.00003046   -0.00017214
     atom   25 type  1   force =     0.00012891    0.00006144  -65.11326625
     atom   26 type  1   force =     0.00013404    0.00003262   65.11322893
     atom   27 type  1   force =    -0.00001101    0.00009389   -0.00016830
     The core correction contribution to forces
     atom    1 type  1   force =     0.00001114    0.00000189   -0.02131666
     atom    2 type  1   force =    -0.00000000    0.00000000    0.02128983
     atom    3 type  1   force =    -0.00000513    0.00000989   -0.00004375
     atom    4 type  1   force =     0.00001071    0.00000204   -0.02131591
     atom    5 type  1   force =    -0.00000462    0.00000608    0.02128819
     atom    6 type  1   force =    -0.00001113    0.00001317   -0.00004668
     atom    7 type  1   force =     0.00001079    0.00000249   -0.02131666
     atom    8 type  1   force =    -0.00000460    0.00000605    0.02128819
     atom    9 type  1   force =    -0.00001284    0.00001613   -0.00004668
     atom   10 type  1   force =     0.00001779   -0.00000259   -0.02131873
     atom   11 type  1   force =     0.00000757    0.00000096    0.02128819
     atom   12 type  1   force =    -0.00000358    0.00001039   -0.00004310
     atom   13 type  1   force =     0.00001156    0.00000205   -0.02131592
     atom   14 type  1   force =     0.00000461    0.00000608    0.02128819
     atom   15 type  1   force =    -0.00000393    0.00001098   -0.00004311
     atom   16 type  1   force =     0.00001114    0.00000278   -0.02131592
     atom   17 type  1   force =    -0.00000000    0.00000872    0.02128634
     atom   18 type  1   force =    -0.00000942    0.00001613   -0.00004667
     atom   19 type  1   force =     0.00001960   -0.00000259   -0.02131872
     atom   20 type  1   force =     0.00000753    0.00000096    0.02128819
     atom   21 type  1   force =    -0.00000203    0.00000989   -0.00004375
     atom   22 type  1   force =     0.00001869   -0.00000103   -0.02131872
     atom   23 type  1   force =     0.00000755    0.00000436    0.02128671
     atom   24 type  1   force =    -0.00000324    0.00001098   -0.00004311
     atom   25 type  1   force =     0.00001149    0.00000249   -0.02131666
     atom   26 type  1   force =     0.00000459    0.00000604    0.02128819
     atom   27 type  1   force =    -0.00000358    0.00001258   -0.00004375
     The Hubbard contrib.    to forces
     atom    1 type  1   force =     0.00000000    0.00000000    0.00000000
     atom    2 type  1   force =     0.00000000    0.00000000    0.00000000
     atom    3 type  1   force =     0.00000000    0.00000000    0.00000000
     atom    4 type  1   force =     0.00000000    0.00000000    0.00000000
     atom    5 type  1   force =     0.00000000    0.00000000    0.00000000
     atom    6 type  1   force =     0.00000000    0.00000000    0.00000000
     atom    7 type  1   force =     0.00000000    0.00000000    0.00000000
     atom    8 type  1   force =     0.00000000    0.00000000    0.00000000
     atom    9 type  1   force =     0.00000000    0.00000000    0.00000000
     atom   10 type  1   force =     0.00000000    0.00000000    0.00000000
     atom   11 type  1   force =     0.00000000    0.00000000    0.00000000
     atom   12 type  1   force =     0.00000000    0.00000000    0.00000000
     atom   13 type  1   force =     0.00000000    0.00000000    0.00000000
     atom   14 type  1   force =     0.00000000    0.00000000    0.00000000
     atom   15 type  1   force =     0.00000000    0.00000000    0.00000000
     atom   16 type  1   force =     0.00000000    0.00000000    0.00000000
     atom   17 type  1   force =     0.00000000    0.00000000    0.00000000
     atom   18 type  1   force =     0.00000000    0.00000000    0.00000000
     atom   19 type  1   force =     0.00000000    0.00000000    0.00000000
     atom   20 type  1   force =     0.00000000    0.00000000    0.00000000
     atom   21 type  1   force =     0.00000000    0.00000000    0.00000000
     atom   22 type  1   force =     0.00000000    0.00000000    0.00000000
     atom   23 type  1   force =     0.00000000    0.00000000    0.00000000
     atom   24 type  1   force =     0.00000000    0.00000000    0.00000000
     atom   25 type  1   force =     0.00000000    0.00000000    0.00000000
     atom   26 type  1   force =     0.00000000    0.00000000    0.00000000
     atom   27 type  1   force =     0.00000000    0.00000000    0.00000000
     The SCF correction term to forces
     atom    1 type  1   force =    -0.00000003    0.00015261    0.00034019
     atom    2 type  1   force =     0.00000002    0.00000004   -0.00025937
     atom    3 type  1   force =     0.00008955    0.00005167    0.00017747
     atom    4 type  1   force =     0.00010941    0.00006319    0.00025570
     atom    5 type  1   force =     0.00004842    0.00013737   -0.00018782
     atom    6 type  1   force =     0.00000009    0.00023971    0.00018316
     atom    7 type  1   force =     0.00013211   -0.00007631    0.00034020
     atom    8 type  1   force =     0.00014321   -0.00002685   -0.00018782
     atom    9 type  1   force =     0.00020773   -0.00011998    0.00018317
     atom   10 type  1   force =     0.00002592    0.00001506    0.00033983
     atom   11 type  1   force =     0.00009476   -0.00011056   -0.00018782
     atom   12 type  1   force =     0.00000001   -0.00013006    0.00018397
     atom   13 type  1   force =    -0.00010950    0.00006317    0.00025569
     atom   14 type  1   force =    -0.00004840    0.00013737   -0.00018781
     atom   15 type  1   force =    -0.00011260    0.00006496    0.00018398
     atom   16 type  1   force =    -0.00000005   -0.00012641    0.00025570
     atom   17 type  1   force =     0.00000001   -0.00000007   -0.00009617
     atom   18 type  1   force =    -0.00020760   -0.00012000    0.00018318
     atom   19 type  1   force =    -0.00002613    0.00001505    0.00033983
     atom   20 type  1   force =    -0.00009486   -0.00011058   -0.00018782
     atom   21 type  1   force =    -0.00008950    0.00005164    0.00017748
     atom   22 type  1   force =    -0.00000012   -0.00003004    0.00033983
     atom   23 type  1   force =    -0.00000006   -0.00000003   -0.00019931
     atom   24 type  1   force =     0.00011261    0.00006495    0.00018397
     atom   25 type  1   force =    -0.00013222   -0.00007634    0.00034019
     atom   26 type  1   force =    -0.00014322   -0.00002687   -0.00018781
     atom   27 type  1   force =    -0.00000000   -0.00010345    0.00017750

     Total force =     0.012114     Total SCF correction =     0.001420
     SCF correction compared to forces is large: reduce conv_thr to get better values


     Computing stress (Cartesian axis) and pressure


     negative rho (up, down):  7.258E-05 0.000E+00
          total   stress  (Ry/bohr**3)                   (kbar)     P=      -25.86
  -0.00027625  -0.00000000   0.00000000          -40.64       -0.00        0.00
   0.00000000  -0.00027625  -0.00000000            0.00      -40.64       -0.00
   0.00000000   0.00000000   0.00002516            0.00        0.00        3.70

     kinetic stress (kbar)   8408.50     -0.00      0.00
                               -0.00   8408.50      0.00
                                0.00     -0.00   8538.20

     local   stress (kbar)-153471.30     -0.00     -0.00
                               -0.00-153471.30      0.00
                               -0.00      0.00 174235.94

     nonloc. stress (kbar)  -5353.38     -0.00      0.00
                                0.00  -5353.38      0.00
                                0.00     -0.00  -5354.65

     hartree stress (kbar)  81320.54      0.00      0.00
                                0.00  81320.54     -0.00
                                0.00     -0.00 -78178.51

     exc-cor stress (kbar)  21857.37      0.00      0.00
                                0.00  21857.37     -0.00
                                0.00     -0.00  21850.61

     corecor stress (kbar) -25216.50     -0.00      0.00
                               -0.00 -25216.50     -0.00
                                0.00     -0.00 -25230.70

     ewald   stress (kbar)  72414.13      0.00      0.00
                                0.00  72414.13     -0.00
                                0.00     -0.00 -95857.19

     hubbard stress (kbar)      0.00      0.00      0.00
                                0.00      0.00      0.00
                                0.00      0.00      0.00

     DFT-D   stress (kbar)      0.00      0.00      0.00
                                0.00      0.00      0.00
                                0.00      0.00      0.00

     XDM     stress (kbar)      0.00      0.00      0.00
                                0.00      0.00      0.00
                                0.00      0.00      0.00

     dft-nl  stress (kbar)      0.00      0.00      0.00
                                0.00      0.00      0.00
                                0.00      0.00      0.00

     TS-vdW  stress (kbar)      0.00      0.00      0.00
                                0.00      0.00      0.00
                                0.00      0.00      0.00



     BFGS Geometry Optimization
     Energy error            =      0.0E+00
     Gradient error          =      2.9E-03

     number of scf cycles    =   1
     number of bfgs steps    =   0

     energy   new            =   -3104.1954110149 Ry

     new trust radius        =       0.0029030439 bohr
     new conv_thr            =       0.0000010000 Ry


ATOMIC_POSITIONS (angstrom)
Au           -0.0000014748        1.7029429493        4.8180896732
Au            0.0000000000        0.0000000000       -0.0015362246
Au            1.4747869654        0.8514669486        2.4083159169
Au           -1.4747597446        4.2573122987        4.8180818509
Au           -1.4747656575        2.5544005269       -0.0015242162
Au            0.0000014748        3.4058713986        2.4083233987
Au           -2.9495293569        6.8116750994        4.8180896732
Au           -2.9495260810        5.1087605094       -0.0015242162
Au           -1.4747456346        5.9602083203        2.4083233987
Au            2.9495486689        1.7029244209        4.8180929601
Au            2.9495585765       -0.0000157394       -0.0015242162
Au            4.4243204748        0.8514445522        2.4083178974
Au            1.4747567950        4.2573122987        4.8180818509
Au            1.4747656575        2.5544005269       -0.0015242162
Au            2.9495343243        3.4058490951        2.4083178974
Au           -0.0000014748        6.8116685509        4.8180818509
Au            0.0000000000        5.1087635313       -0.0015128830
Au            1.4747485842        5.9602083203        2.4083233987
Au            5.8990863815        1.7029244209        4.8180929601
Au            5.8990794235       -0.0000157394       -0.0015242162
Au            7.3738539842        0.8514669486        2.4083159169
Au            4.4243175252        4.2572990095        4.8180929601
Au            4.4243190000        2.5543817656       -0.0015236869
Au            5.8991066253        3.4058490951        2.4083178974
Au            2.9495264073        6.8116750994        4.8180896732
Au            2.9495260810        5.1087605094       -0.0015242162
Au            4.4243204748        5.9602088454        2.4083159169



     Writing output data file ./surface.save/
     NEW-OLD atomic charge density approx. for the potential

     Check: negative core charge=   -0.000003

     negative rho (up, down):  7.244E-05 0.000E+00

     total cpu time spent up to now is       35.5 secs

     Self-consistent Calculation

     iteration #  1     ecut=    30.00 Ry     beta= 0.30
     Davidson diagonalization with overlap
     ethr =  1.00E-06,  avg # of iterations =  3.0

     Threshold (ethr) on eigenvalues was too large:
     Diagonalizing with lowered threshold

     Davidson diagonalization with overlap
     ethr =  1.15E-08,  avg # of iterations =  6.8

     negative rho (up, down):  7.235E-05 0.000E+00

     total cpu time spent up to now is       42.4 secs

     total energy              =   -3104.19554169 Ry
     estimated scf accuracy    <       0.00000286 Ry

     iteration #  2     ecut=    30.00 Ry     beta= 0.30
     Davidson diagonalization with overlap
     ethr =  9.64E-10,  avg # of iterations =  4.2

     negative rho (up, down):  7.227E-05 0.000E+00

     total cpu time spent up to now is       45.4 secs

     total energy              =   -3104.19554276 Ry
     estimated scf accuracy    <       0.00000151 Ry

     iteration #  3     ecut=    30.00 Ry     beta= 0.30
     Davidson diagonalization with overlap
     ethr =  5.08E-10,  avg # of iterations =  2.0

     negative rho (up, down):  7.221E-05 0.000E+00

     total cpu time spent up to now is       47.4 secs

     total energy              =   -3104.19554282 Ry
     estimated scf accuracy    <       0.00000119 Ry

     iteration #  4     ecut=    30.00 Ry     beta= 0.30
     Davidson diagonalization with overlap
     ethr =  4.01E-10,  avg # of iterations =  1.0

     negative rho (up, down):  7.211E-05 0.000E+00

     total cpu time spent up to now is       49.2 secs

     End of self-consistent calculation

          k = 0.0000 0.0000 0.0000 ( 21879 PWs)   bands (ev):

    -5.6190  -4.0384  -3.6839  -3.5563  -3.5562  -3.5562  -3.5561  -3.5561
    -3.5561  -2.9499  -2.9499  -2.9499  -2.9498  -2.9498  -2.9498  -2.7107
    -2.7107  -2.7107  -2.7106  -2.7106  -2.7106  -2.3598  -2.3598  -2.3598
    -2.3598  -2.3598  -2.3598  -2.3498  -2.3498  -2.3151  -2.3151  -2.3151
    -2.3151  -1.8870  -1.8870  -1.8870  -1.8870  -1.5417  -1.5417  -1.5417
    -1.5416  -1.5416  -1.5416  -1.4282  -1.4282  -1.3978  -1.3289  -1.3289
    -1.3289  -1.3288  -1.3288  -1.3288  -1.1330  -1.1330  -1.0806  -1.0806
    -0.9454  -0.9088  -0.9088  -0.9088  -0.9087  -0.9087  -0.9086  -0.9005
    -0.9005  -0.8838  -0.8838  -0.8838  -0.8838  -0.8838  -0.8838  -0.7939
    -0.7939  -0.7934  -0.7934  -0.7861  -0.7861  -0.7732  -0.7732  -0.2250
    -0.2250  -0.2250  -0.2249  -0.2249  -0.2249  -0.1020  -0.1020  -0.1017
    -0.1017  -0.0285  -0.0285  -0.0285  -0.0284  -0.0284  -0.0284  -0.0275
    -0.0275   0.0621   0.0621   0.0621   0.0621   0.0621   0.0621   0.3670
     0.3670   0.3670   0.3670   0.3670   0.3670   0.4159   0.4159   0.4159
     0.4160   0.4160   0.4160   0.4769   0.4769   0.6405   0.6405   0.6405
     0.6406   0.6406   0.6406   0.6954   0.6954   0.6954   0.6954   0.6954
     0.6954   0.6989   0.6989   0.6993   0.6993   0.7917   0.7917   0.9010
     0.9010   0.9658   0.9659   0.9659   0.9659   0.9659   0.9659   1.3244
     1.3245   1.3245   1.3245   1.3245   1.3245   1.4225   3.4432   3.8354
     3.8354   3.8354   3.8355   3.8355   3.8355   5.6155   5.6155   5.8707
     5.8707   5.8710   5.8710   7.2274   7.5651   7.5651   7.5651   7.5652
     7.5652   7.5652   8.0317   8.0317   8.0584   8.0584   8.0585   8.0585
     8.3456   8.7501   9.2763

     occupation numbers 
     1.0000   1.0000   1.0000   1.0000   1.0000   1.0000   1.0000   1.0000
     1.0000   1.0000   1.0000   1.0000   1.0000   1.0000   1.0000   1.0000
     1.0000   1.0000   1.0000   1.0000   1.0000   1.0000   1.0000   1.0000
     1.0000   1.0000   1.0000   1.0000   1.0000   1.0000   1.0000   1.0000
     1.0000   1.0000   1.0000   1.0000   1.0000   1.0000   1.0000   1.0000
     1.0000   1.0000   1.0000   1.0000   1.0000   1.0000   1.0000   1.0000
     1.0000   1.0000   1.0000   1.0000   1.0000   1.0000   1.0000   1.0000
     1.0000   1.0000   1.0000   1.0000   1.0000   1.0000   1.0000   1.0000
     1.0000   1.0000   1.0000   1.0000   1.0000   1.0000   1.0000   1.0000
     1.0000   1.0000   1.0000   1.0000   1.0000   1.0000   1.0000   1.0000
     1.0000   1.0000   1.0000   1.0000   1.0000   1.0000   1.0000   1.0000
     1.0000   1.0000   1.0000   1.0000   1.0000   1.0000   1.0000   1.0000
     1.0000   1.0000   1.0000   1.0000   1.0000   1.0000   1.0000   1.0000
     1.0000   1.0000   1.0000   1.0000   1.0000   1.0000   1.0000   1.0000
     1.0000   1.0000   1.0000   1.0000   1.0000   1.0000   1.0000   1.0000
     1.0000   1.0000   1.0000   1.0000   1.0000   1.0000   1.0000   1.0000
     1.0000   1.0000   1.0000   1.0000   1.0000   1.0000   1.0000   1.0000
     1.0000   1.0000   1.0000   1.0000   1.0000   1.0000   1.0000   1.0000
     1.0000   1.0000   1.0000   1.0000   1.0000   1.0000   0.0000   0.0000
     0.0000   0.0000   0.0000   0.0000   0.0000   0.0000   0.0000   0.0000
     0.0000   0.0000   0.0000   0.0000   0.0000   0.0000   0.0000   0.0000
     0.0000   0.0000   0.0000   0.0000   0.0000   0.0000   0.0000   0.0000
     0.0000   0.0000   0.0000

          k = 0.0000 0.2887 0.0000 ( 21901 PWs)   bands (ev):

    -5.4189  -4.1043  -3.8402  -3.6377  -3.6377  -3.5085  -3.4292  -3.3122
    -3.3122  -3.0912  -2.9187  -2.9187  -2.9121  -2.8033  -2.7754  -2.7754
    -2.7000  -2.7000  -2.6748  -2.5833  -2.5833  -2.5828  -2.5752  -2.5752
    -2.4977  -2.4977  -2.3546  -2.3546  -2.2664  -2.2664  -2.1054  -2.1054
    -2.0626  -2.0140  -2.0140  -1.7477  -1.7476  -1.7476  -1.6547  -1.6547
    -1.6056  -1.6037  -1.6037  -1.5473  -1.4402  -1.4402  -1.4165  -1.3948
    -1.3700  -1.3700  -1.3141  -1.3141  -1.3094  -1.3032  -1.2683  -1.1430
    -1.1430  -1.0521  -1.0521  -1.0174  -1.0174  -1.0018  -0.9923  -0.9623
    -0.9456  -0.8954  -0.8938  -0.8938  -0.8708  -0.8708  -0.8175  -0.7777
    -0.7582  -0.7582  -0.7018  -0.7018  -0.6980  -0.6065  -0.5766  -0.5220
    -0.5220  -0.5021  -0.5021  -0.4481  -0.4461  -0.4461  -0.2245  -0.2245
    -0.1927  -0.1927  -0.1396  -0.1396  -0.1347  -0.0691  -0.0652  -0.0042
    -0.0042   0.0310   0.0310   0.0683   0.0864   0.0912   0.0912   0.1391
     0.1391   0.1494   0.1734   0.2511   0.3326   0.3326   0.3473   0.3473
     0.4168   0.4717   0.5894   0.5894   0.5993   0.5993   0.6157   0.6157
     0.6882   0.6924   0.6924   0.6971   0.7595   0.7849   0.7849   0.8174
     0.8740   0.8782   0.8782   0.8996   0.8996   0.9047   0.9261   0.9710
     0.9710   0.9741   0.9741   1.1529   1.1917   1.2309   1.2309   1.5436
     1.5436   1.6711   1.7435   2.3238   2.3238   2.6739   2.9810   3.5053
     3.5053   3.9257   4.3569   4.3569   4.6208   4.6208   5.0674   5.6515
     5.6515   6.1606   6.1606   6.2908   6.6061   7.1431   7.1431   7.1889
     7.1889   7.3681   7.7626   7.7626   7.8782   7.9904   7.9904   8.4922
     8.5851   8.6942   8.6944

     occupation numbers 
     1.0000   1.0000   1.0000   1.0000   1.0000   1.0000   1.0000   1.0000
     1.0000   1.0000   1.0000   1.0000   1.0000   1.0000   1.0000   1.0000
     1.0000   1.0000   1.0000   1.0000   1.0000   1.0000   1.0000   1.0000
     1.0000   1.0000   1.0000   1.0000   1.0000   1.0000   1.0000   1.0000
     1.0000   1.0000   1.0000   1.0000   1.0000   1.0000   1.0000   1.0000
     1.0000   1.0000   1.0000   1.0000   1.0000   1.0000   1.0000   1.0000
     1.0000   1.0000   1.0000   1.0000   1.0000   1.0000   1.0000   1.0000
     1.0000   1.0000   1.0000   1.0000   1.0000   1.0000   1.0000   1.0000
     1.0000   1.0000   1.0000   1.0000   1.0000   1.0000   1.0000   1.0000
     1.0000   1.0000   1.0000   1.0000   1.0000   1.0000   1.0000   1.0000
     1.0000   1.0000   1.0000   1.0000   1.0000   1.0000   1.0000   1.0000
     1.0000   1.0000   1.0000   1.0000   1.0000   1.0000   1.0000   1.0000
     1.0000   1.0000   1.0000   1.0000   1.0000   1.0000   1.0000   1.0000
     1.0000   1.0000   1.0000   1.0000   1.0000   1.0000   1.0000   1.0000
     1.0000   1.0000   1.0000   1.0000   1.0000   1.0000   1.0000   1.0000
     1.0000   1.0000   1.0000   1.0000   1.0000   1.0000   1.0000   1.0000
     1.0000   1.0000   1.0000   1.0000   1.0000   1.0000   1.0000   1.0000
     1.0000   1.0000   1.0000   1.0000   1.0000   1.0000   1.0000   1.0000
     1.0000   1.0000   1.0000   1.0000   1.0000   1.0000   0.0000   0.0000
     0.0000   0.0000   0.0000   0.0000   0.0000   0.0000   0.0000   0.0000
     0.0000   0.0000   0.0000   0.0000   0.0000   0.0000   0.0000   0.0000
     0.0000   0.0000   0.0000   0.0000   0.0000   0.0000   0.0000   0.0000
     0.0000   0.0000   0.0000

          k = 0.0000-0.5774 0.0000 ( 21828 PWs)   bands (ev):

    -4.8580  -4.8578  -3.6410  -3.6410  -3.4353  -3.3253  -3.3251  -3.1519
    -3.0604  -3.0603  -2.9167  -2.9167  -2.9166  -2.9165  -2.8345  -2.7699
    -2.7699  -2.7697  -2.7697  -2.6654  -2.6015  -2.6015  -2.5519  -2.5518
    -2.5517  -2.5517  -2.2859  -2.2859  -2.2020  -2.2020  -2.0612  -2.0612
    -2.0610  -2.0610  -1.8110  -1.8109  -1.7110  -1.7109  -1.7109  -1.7109
    -1.6794  -1.6794  -1.6311  -1.6052  -1.6051  -1.4960  -1.4960  -1.4925
    -1.4097  -1.4097  -1.4096  -1.4096  -1.3505  -1.3504  -1.3385  -1.3385
    -1.2428  -1.2428  -1.1982  -1.1982  -1.1981  -1.1981  -1.0420  -1.0420
    -1.0373  -0.9867  -0.9865  -0.9009  -0.9008  -0.8105  -0.8105  -0.8105
    -0.8105  -0.7979  -0.7978  -0.7682  -0.7682  -0.6701  -0.6701  -0.4288
    -0.4282  -0.4280  -0.3115  -0.3115  -0.2921  -0.2921  -0.2921  -0.2921
    -0.2717  -0.2717  -0.1188  -0.1188  -0.1188  -0.1188  -0.0783  -0.0783
    -0.0783  -0.0783  -0.0748  -0.0747  -0.0524  -0.0523   0.0678   0.0775
     0.0775   0.2286   0.2286   0.2604   0.2604   0.2605   0.2605   0.2830
     0.4431   0.4431   0.5409   0.5409   0.5410   0.5410   0.5873   0.5873
     0.6201   0.6201   0.7180   0.7180   0.7821   0.8326   0.8326   0.8939
     0.8939   0.8939   0.8939   0.9142   0.9142   0.9166   0.9659   1.0984
     1.0984   1.0984   1.0984   1.2553   1.2553   1.3267   1.3550   2.3228
     2.3229   2.8715   2.8715   2.8715   2.8715   3.2389   3.4217   3.4217
     3.9473   3.9473   3.9473   3.9473   4.0641   4.3520   4.9972   4.9973
     5.9595   5.9595   5.9595   5.9595   6.2148   6.8591   6.8592   6.8592
     6.8593   6.9471   6.9969   6.9969   7.7010   7.7894   7.7894   8.2326
     8.2326   8.2327   8.2327

     occupation numbers 
     1.0000   1.0000   1.0000   1.0000   1.0000   1.0000   1.0000   1.0000
     1.0000   1.0000   1.0000   1.0000   1.0000   1.0000   1.0000   1.0000
     1.0000   1.0000   1.0000   1.0000   1.0000   1.0000   1.0000   1.0000
     1.0000   1.0000   1.0000   1.0000   1.0000   1.0000   1.0000   1.0000
     1.0000   1.0000   1.0000   1.0000   1.0000   1.0000   1.0000   1.0000
     1.0000   1.0000   1.0000   1.0000   1.0000   1.0000   1.0000   1.0000
     1.0000   1.0000   1.0000   1.0000   1.0000   1.0000   1.0000   1.0000
     1.0000   1.0000   1.0000   1.0000   1.0000   1.0000   1.0000   1.0000
     1.0000   1.0000   1.0000   1.0000   1.0000   1.0000   1.0000   1.0000
     1.0000   1.0000   1.0000   1.0000   1.0000   1.0000   1.0000   1.0000
     1.0000   1.0000   1.0000   1.0000   1.0000   1.0000   1.0000   1.0000
     1.0000   1.0000   1.0000   1.0000   1.0000   1.0000   1.0000   1.0000
     1.0000   1.0000   1.0000   1.0000   1.0000   1.0000   1.0000   1.0000
     1.0000   1.0000   1.0000   1.0000   1.0000   1.0000   1.0000   1.0000
     1.0000   1.0000   1.0000   1.0000   1.0000   1.0000   1.0000   1.0000
     1.0000   1.0000   1.0000   1.0000   1.0000   1.0000   1.0000   1.0000
     1.0000   1.0000   1.0000   1.0000   1.0000   1.0000   1.0000   1.0000
     1.0000   1.0000   1.0000   1.0000   1.0000   1.0000   1.0000   1.0000
     1.0000   0.1483   0.1482   0.1481   0.1481   0.0000   0.0000   0.0000
     0.0000   0.0000   0.0000   0.0000   0.0000   0.0000   0.0000   0.0000
     0.0000   0.0000   0.0000   0.0000   0.0000   0.0000   0.0000   0.0000
     0.0000   0.0000   0.0000   0.0000   0.0000   0.0000   0.0000   0.0000
     0.0000   0.0000   0.0000

          k = 0.2500 0.4330 0.0000 ( 21853 PWs)   bands (ev):

    -5.0357  -4.3533  -4.3531  -3.4740  -3.2940  -3.2940  -3.1883  -3.0569
    -3.0568  -3.0352  -3.0351  -2.9331  -2.9330  -2.9276  -2.8193  -2.7658
    -2.7658  -2.7058  -2.7057  -2.6552  -2.6551  -2.6236  -2.6234  -2.5775
    -2.4996  -2.4995  -2.4409  -2.4408  -2.2913  -2.1236  -1.9911  -1.9910
    -1.9584  -1.9584  -1.9089  -1.7746  -1.7607  -1.7607  -1.7504  -1.7403
    -1.7258  -1.7257  -1.6413  -1.6413  -1.5505  -1.5504  -1.4991  -1.4794
    -1.4184  -1.4184  -1.4172  -1.3935  -1.3934  -1.3071  -1.2846  -1.1666
    -1.1666  -1.1315  -1.1315  -1.1273  -1.1273  -1.0809  -1.0502  -1.0502
    -1.0075  -0.9948  -0.9623  -0.9293  -0.9293  -0.9006  -0.8354  -0.8308
    -0.8308  -0.7671  -0.7671  -0.7035  -0.6968  -0.6912  -0.6185  -0.6185
    -0.5818  -0.5818  -0.5251  -0.5251  -0.5189  -0.4362  -0.4362  -0.2753
    -0.1990  -0.1382  -0.1322  -0.1197  -0.1197  -0.0788  -0.0788  -0.0486
    -0.0486  -0.0224  -0.0194  -0.0194  -0.0114  -0.0114   0.0219   0.1481
     0.1482   0.1628   0.1889   0.1934   0.1935   0.2727   0.3259   0.3259
     0.4413   0.4413   0.4509   0.4794   0.6317   0.6317   0.6999   0.7429
     0.7473   0.7473   0.7741   0.7741   0.8011   0.8447   0.8447   0.8602
     0.8694   0.8694   0.8808   0.8808   0.8923   0.9640   0.9640   1.0146
     1.0146   1.0274   1.1024   1.1628   1.1628   1.6434   1.6434   2.1631
     2.3602   2.3602   2.7513   2.7513   2.8651   2.9784   2.9785   3.9412
     3.9753   3.9754   4.4614   4.4614   4.4864   4.6813   4.7400   5.2623
     5.2623   5.5743   5.8351   5.8352   5.8650   6.3727   6.3961   6.3961
     6.9184   6.9184   7.5333   7.6490   8.1536   8.1867   8.2111   8.2112
     8.2653   8.2653   8.5596

     occupation numbers 
     1.0000   1.0000   1.0000   1.0000   1.0000   1.0000   1.0000   1.0000
     1.0000   1.0000   1.0000   1.0000   1.0000   1.0000   1.0000   1.0000
     1.0000   1.0000   1.0000   1.0000   1.0000   1.0000   1.0000   1.0000
     1.0000   1.0000   1.0000   1.0000   1.0000   1.0000   1.0000   1.0000
     1.0000   1.0000   1.0000   1.0000   1.0000   1.0000   1.0000   1.0000
     1.0000   1.0000   1.0000   1.0000   1.0000   1.0000   1.0000   1.0000
     1.0000   1.0000   1.0000   1.0000   1.0000   1.0000   1.0000   1.0000
     1.0000   1.0000   1.0000   1.0000   1.0000   1.0000   1.0000   1.0000
     1.0000   1.0000   1.0000   1.0000   1.0000   1.0000   1.0000   1.0000
     1.0000   1.0000   1.0000   1.0000   1.0000   1.0000   1.0000   1.0000
     1.0000   1.0000   1.0000   1.0000   1.0000   1.0000   1.0000   1.0000
     1.0000   1.0000   1.0000   1.0000   1.0000   1.0000   1.0000   1.0000
     1.0000   1.0000   1.0000   1.0000   1.0000   1.0000   1.0000   1.0000
     1.0000   1.0000   1.0000   1.0000   1.0000   1.0000   1.0000   1.0000
     1.0000   1.0000   1.0000   1.0000   1.0000   1.0000   1.0000   1.0000
     1.0000   1.0000   1.0000   1.0000   1.0000   1.0000   1.0000   1.0000
     1.0000   1.0000   1.0000   1.0000   1.0000   1.0000   1.0000   1.0000
     1.0000   1.0000   1.0000   1.0000   1.0000   1.0000   1.0000   1.0000
     1.0000   1.0000   0.9991   0.9991   0.2055   0.0000   0.0000   0.0000
     0.0000   0.0000   0.0000   0.0000   0.0000   0.0000   0.0000   0.0000
     0.0000   0.0000   0.0000   0.0000   0.0000   0.0000   0.0000   0.0000
     0.0000   0.0000   0.0000   0.0000   0.0000   0.0000   0.0000   0.0000
     0.0000   0.0000   0.0000

     the Fermi energy is     2.8414 ev

!    total energy              =   -3104.19554267 Ry
     estimated scf accuracy    <       0.00000047 Ry
     smearing contrib. (-TS)   =      -0.00119824 Ry
     internal energy E=F+TS    =   -3104.19434443 Ry

     The total energy is F=E-TS. E is the sum of the following terms:
     one-electron contribution =   -8568.04115214 Ry
     hartree contribution      =    4522.24882063 Ry
     xc contribution           =   -1678.96016646 Ry
     ewald contribution        =    2620.55815353 Ry

     convergence has been achieved in   4 iterations

     negative rho (up, down):  7.211E-05 0.000E+00

     Forces acting on atoms (cartesian axes, Ry/au):

     atom    1 type  1   force =    -0.00000000   -0.00004051    0.00259879
     atom    2 type  1   force =    -0.00000000   -0.00000000   -0.00263554
     atom    3 type  1   force =    -0.00002805   -0.00001619    0.00003571
     atom    4 type  1   force =    -0.00002766   -0.00001597    0.00263095
     atom    5 type  1   force =    -0.00001107   -0.00003222   -0.00264585
     atom    6 type  1   force =     0.00000000   -0.00006823    0.00004733
     atom    7 type  1   force =    -0.00003508    0.00002025    0.00259879
     atom    8 type  1   force =    -0.00003344    0.00000652   -0.00264585
     atom    9 type  1   force =    -0.00005909    0.00003411    0.00004733
     atom   10 type  1   force =    -0.00000669   -0.00000386    0.00259619
     atom   11 type  1   force =    -0.00002236    0.00002570   -0.00264585
     atom   12 type  1   force =     0.00000000    0.00003543    0.00003599
     atom   13 type  1   force =     0.00002766   -0.00001597    0.00263095
     atom   14 type  1   force =     0.00001107   -0.00003222   -0.00264585
     atom   15 type  1   force =     0.00003068   -0.00001771    0.00003599
     atom   16 type  1   force =     0.00000000    0.00003194    0.00263095
     atom   17 type  1   force =     0.00000000   -0.00000000   -0.00267297
     atom   18 type  1   force =     0.00005909    0.00003411    0.00004733
     atom   19 type  1   force =     0.00000669   -0.00000386    0.00259619
     atom   20 type  1   force =     0.00002236    0.00002570   -0.00264585
     atom   21 type  1   force =     0.00002805   -0.00001619    0.00003571
     atom   22 type  1   force =     0.00000000    0.00000773    0.00259619
     atom   23 type  1   force =     0.00000000    0.00000000   -0.00265124
     atom   24 type  1   force =    -0.00003068   -0.00001771    0.00003599
     atom   25 type  1   force =     0.00003508    0.00002025    0.00259879
     atom   26 type  1   force =     0.00003344    0.00000652   -0.00264585
     atom   27 type  1   force =     0.00000000    0.00003238    0.00003571
     The non-local contrib.  to forces
     atom    1 type  1   force =     0.00000000   -0.00001887   -0.03767509
     atom    2 type  1   force =     0.00000000   -0.00000000    0.03775378
     atom    3 type  1   force =    -0.00002255   -0.00001302    0.00008149
     atom    4 type  1   force =    -0.00000978   -0.00000565   -0.03766688
     atom    5 type  1   force =    -0.00000592   -0.00001345    0.03776682
     atom    6 type  1   force =     0.00000000   -0.00004457    0.00008839
     atom    7 type  1   force =    -0.00001634    0.00000943   -0.03767509
     atom    8 type  1   force =    -0.00001461    0.00000160    0.03776682
     atom    9 type  1   force =    -0.00003860    0.00002229    0.00008839
     atom   10 type  1   force =    -0.00000451   -0.00000260   -0.03768117
     atom   11 type  1   force =    -0.00000869    0.00001186    0.03776682
     atom   12 type  1   force =     0.00000000    0.00002333    0.00008442
     atom   13 type  1   force =     0.00000978   -0.00000565   -0.03766688
     atom   14 type  1   force =     0.00000592   -0.00001345    0.03776682
     atom   15 type  1   force =     0.00002020   -0.00001166    0.00008442
     atom   16 type  1   force =     0.00000000    0.00001129   -0.03766688
     atom   17 type  1   force =     0.00000000    0.00000000    0.03776974
     atom   18 type  1   force =     0.00003860    0.00002229    0.00008839
     atom   19 type  1   force =     0.00000451   -0.00000260   -0.03768117
     atom   20 type  1   force =     0.00000869    0.00001186    0.03776682
     atom   21 type  1   force =     0.00002255   -0.00001302    0.00008149
     atom   22 type  1   force =     0.00000000    0.00000520   -0.03768117
     atom   23 type  1   force =     0.00000000    0.00000000    0.03774929
     atom   24 type  1   force =    -0.00002020   -0.00001166    0.00008442
     atom   25 type  1   force =     0.00001634    0.00000943   -0.03767509
     atom   26 type  1   force =     0.00001461    0.00000160    0.03776682
     atom   27 type  1   force =    -0.00000000    0.00002604    0.00008149
     The ionic contribution  to forces
     atom    1 type  1   force =    -0.00001458   -0.00080936   65.14683778
     atom    2 type  1   force =    -0.00001179   -0.00002450  -65.14648241
     atom    3 type  1   force =    -0.00049880   -0.00030698   -0.00046942
     atom    4 type  1   force =    -0.00060360   -0.00034713   65.14719035
     atom    5 type  1   force =    -0.00019538   -0.00067796  -65.14659873
     atom    6 type  1   force =    -0.00002144   -0.00119390   -0.00035320
     atom    7 type  1   force =    -0.00069098    0.00039814   65.14683028
     atom    8 type  1   force =    -0.00068461    0.00019025  -65.14659751
     atom    9 type  1   force =    -0.00104848    0.00060653   -0.00035967
     atom   10 type  1   force =    -0.00010048   -0.00008027   65.14700134
     atom   11 type  1   force =    -0.00049044    0.00047219  -65.14659751
     atom   12 type  1   force =     0.00000303    0.00060655   -0.00038619
     atom   13 type  1   force =     0.00058829   -0.00033871   65.14719869
     atom   14 type  1   force =     0.00018035   -0.00067454  -65.14660623
     atom   15 type  1   force =     0.00054362   -0.00030823   -0.00039266
     atom   16 type  1   force =    -0.00000037    0.00069597   65.14718997
     atom   17 type  1   force =    -0.00000360    0.00001742  -65.14685409
     atom   18 type  1   force =     0.00102846    0.00061932   -0.00036277
     atom   19 type  1   force =     0.00012165   -0.00007037   65.14699877
     atom   20 type  1   force =     0.00050608    0.00048262  -65.14659873
     atom   21 type  1   force =     0.00049136   -0.00028989   -0.00047097
     atom   22 type  1   force =     0.00001915    0.00012802   65.14699999
     atom   23 type  1   force =     0.00001721    0.00000541  -65.14647190
     atom   24 type  1   force =    -0.00052819   -0.00030392   -0.00039111
     atom   25 type  1   force =     0.00069351    0.00041645   65.14683606
     atom   26 type  1   force =     0.00068764    0.00020410  -65.14660623
     atom   27 type  1   force =     0.00001240    0.00058279   -0.00048391
     The local contribution  to forces
     atom    1 type  1   force =     0.00003493    0.00096611  -65.08575318
     atom    2 type  1   force =    -0.00000000   -0.00000000   65.08475490
     atom    3 type  1   force =     0.00057909    0.00037382   -0.00023201
     atom    4 type  1   force =     0.00073578    0.00041182  -65.08617818
     atom    5 type  1   force =     0.00020931    0.00083602   65.08492694
     atom    6 type  1   force =    -0.00003420    0.00147478   -0.00033307
     atom    7 type  1   force =     0.00086538   -0.00047228  -65.08575318
     atom    8 type  1   force =     0.00080499   -0.00019572   65.08492694
     atom    9 type  1   force =     0.00120271   -0.00066761   -0.00033307
     atom   10 type  1   force =     0.00019826    0.00007413  -65.08591944
     atom   11 type  1   force =     0.00061936   -0.00059928   65.08492694
     atom   12 type  1   force =    -0.00001101   -0.00071501   -0.00030773
     atom   13 type  1   force =    -0.00066593    0.00041182  -65.08617818
     atom   14 type  1   force =    -0.00020931    0.00083602   65.08492694
     atom   15 type  1   force =    -0.00065892    0.00040720   -0.00030773
     atom   16 type  1   force =     0.00003493   -0.00080210  -65.08617818
     atom   17 type  1   force =     0.00000000    0.00002735   65.08523380
     atom   18 type  1   force =    -0.00127111   -0.00066761   -0.00033307
     atom   19 type  1   force =    -0.00008103    0.00007413  -65.08591944
     atom   20 type  1   force =    -0.00057199   -0.00059928   65.08492694
     atom   21 type  1   force =    -0.00060111    0.00037382   -0.00023201
     atom   22 type  1   force =     0.00005861   -0.00016774  -65.08591944
     atom   23 type  1   force =     0.00002368    0.00001367   65.08479142
     atom   24 type  1   force =     0.00063690    0.00040720   -0.00030773
     atom   25 type  1   force =    -0.00079553   -0.00047228  -65.08575318
     atom   26 type  1   force =    -0.00080499   -0.00019572   65.08492694
     atom   27 type  1   force =    -0.00001101   -0.00064825   -0.00023200
     The core correction contribution to forces
     atom    1 type  1   force =     0.00001114    0.00000238   -0.02123188
     atom    2 type  1   force =    -0.00000000   -0.00000000    0.02124046
     atom    3 type  1   force =    -0.00000085    0.00001236    0.00001143
     atom    4 type  1   force =     0.00001039    0.00000186   -0.02123585
     atom    5 type  1   force =    -0.00000422    0.00000603    0.02123703
     atom    6 type  1   force =    -0.00001113    0.00001795    0.00001422
     atom    7 type  1   force =     0.00001122    0.00000224   -0.02123189
     atom    8 type  1   force =    -0.00000444    0.00000642    0.02123703
     atom    9 type  1   force =    -0.00000870    0.00001374    0.00001421
     atom   10 type  1   force =     0.00001876   -0.00000203   -0.02123249
     atom   11 type  1   force =     0.00000733    0.00000064    0.02123703
     atom   12 type  1   force =    -0.00000358    0.00000926    0.00000978
     atom   13 type  1   force =     0.00001189    0.00000186   -0.02123586
     atom   14 type  1   force =     0.00000422    0.00000603    0.02123703
     atom   15 type  1   force =    -0.00000490    0.00001154    0.00000977
     atom   16 type  1   force =     0.00001114    0.00000315   -0.02123586
     atom   17 type  1   force =     0.00000000    0.00000872    0.02123293
     atom   18 type  1   force =    -0.00001356    0.00001374    0.00001422
     atom   19 type  1   force =     0.00001862   -0.00000203   -0.02123250
     atom   20 type  1   force =     0.00000777    0.00000064    0.02123703
     atom   21 type  1   force =    -0.00000632    0.00001236    0.00001143
     atom   22 type  1   force =     0.00001869   -0.00000215   -0.02123249
     atom   23 type  1   force =     0.00000755    0.00000436    0.02124064
     atom   24 type  1   force =    -0.00000227    0.00001154    0.00000977
     atom   25 type  1   force =     0.00001106    0.00000224   -0.02123189
     atom   26 type  1   force =     0.00000444    0.00000641    0.02123703
     atom   27 type  1   force =    -0.00000358    0.00000763    0.00001143
     The Hubbard contrib.    to forces
     atom    1 type  1   force =     0.00000000    0.00000000    0.00000000
     atom    2 type  1   force =     0.00000000    0.00000000    0.00000000
     atom    3 type  1   force =     0.00000000    0.00000000    0.00000000
     atom    4 type  1   force =     0.00000000    0.00000000    0.00000000
     atom    5 type  1   force =     0.00000000    0.00000000    0.00000000
     atom    6 type  1   force =     0.00000000    0.00000000    0.00000000
     atom    7 type  1   force =     0.00000000    0.00000000    0.00000000
     atom    8 type  1   force =     0.00000000    0.00000000    0.00000000
     atom    9 type  1   force =     0.00000000    0.00000000    0.00000000
     atom   10 type  1   force =     0.00000000    0.00000000    0.00000000
     atom   11 type  1   force =     0.00000000    0.00000000    0.00000000
     atom   12 type  1   force =     0.00000000    0.00000000    0.00000000
     atom   13 type  1   force =     0.00000000    0.00000000    0.00000000
     atom   14 type  1   force =     0.00000000    0.00000000    0.00000000
     atom   15 type  1   force =     0.00000000    0.00000000    0.00000000
[...]
     atom   18 type  1   force =     0.00000698    0.00000403   -0.00001285
     atom   19 type  1   force =     0.00000215   -0.00000124   -0.03672249
     atom   20 type  1   force =     0.00000323    0.00000518    0.03671949
     atom   21 type  1   force =     0.00000277   -0.00000160   -0.00001089
     atom   22 type  1   force =     0.00000000    0.00000249   -0.03672249
     atom   23 type  1   force =     0.00000000    0.00000000    0.03671664
     atom   24 type  1   force =    -0.00000256   -0.00000148   -0.00001244
     atom   25 type  1   force =     0.00000529    0.00000306   -0.03672274
     atom   26 type  1   force =     0.00000610    0.00000021    0.03671949
     atom   27 type  1   force =     0.00000000    0.00000319   -0.00001089
     The ionic contribution  to forces
     atom    1 type  1   force =    -0.00001458   -0.00125698   64.80827631
     atom    2 type  1   force =    -0.00001182   -0.00002446  -64.80960400
     atom    3 type  1   force =    -0.00050858   -0.00031263    0.00082864
     atom    4 type  1   force =    -0.00100311   -0.00057773   64.80905787
     atom    5 type  1   force =    -0.00055956   -0.00106793  -64.80967322
     atom    6 type  1   force =    -0.00002128   -0.00174724    0.00113834
     atom    7 type  1   force =    -0.00107877    0.00062205   64.80826896
     atom    8 type  1   force =    -0.00120445    0.00006981  -64.80967200
     atom    9 type  1   force =    -0.00152752    0.00088305    0.00113198
     atom   10 type  1   force =    -0.00009394   -0.00007635   64.80863041
     atom   11 type  1   force =    -0.00064607    0.00098265  -64.80967200
     atom   12 type  1   force =     0.00000308    0.00105167    0.00112156
     atom   13 type  1   force =     0.00098774   -0.00056936   64.80906608
     atom   14 type  1   force =     0.00054450   -0.00106444  -64.80968057
     atom   15 type  1   force =     0.00092913   -0.00053087    0.00111520
     atom   16 type  1   force =    -0.00000044    0.00115726   64.80905751
     atom   17 type  1   force =    -0.00000359    0.00001742  -64.81015526
     atom   18 type  1   force =     0.00150768    0.00089576    0.00112891
     atom   19 type  1   force =     0.00011494   -0.00006649   64.80862788
     atom   20 type  1   force =     0.00066169    0.00099303  -64.80967322
     atom   21 type  1   force =     0.00050137   -0.00029557    0.00082711
     atom   22 type  1   force =     0.00001904    0.00012037   64.80862910
     atom   23 type  1   force =     0.00001715    0.00000545  -64.80930075
     atom   24 type  1   force =    -0.00091360   -0.00052653    0.00111674
     atom   25 type  1   force =     0.00108116    0.00064028   64.80827464
     atom   26 type  1   force =     0.00120737    0.00008369  -64.80968057
     atom   27 type  1   force =     0.00001244    0.00059410    0.00081439
     The local contribution  to forces
     atom    1 type  1   force =     0.00003496    0.00127524  -64.75118227
     atom    2 type  1   force =    -0.00000000   -0.00000000   64.75246637
     atom    3 type  1   force =     0.00051291    0.00033569   -0.00078278
     atom    4 type  1   force =     0.00103601    0.00058515  -64.75196639
     atom    5 type  1   force =     0.00052715    0.00110016   64.75253707
     atom    6 type  1   force =    -0.00003426    0.00181500   -0.00109146
     atom    7 type  1   force =     0.00113313   -0.00062684  -64.75118227
     atom    8 type  1   force =     0.00119264   -0.00005249   64.75253707
     atom    9 type  1   force =     0.00149722   -0.00083759   -0.00109146
     atom   10 type  1   force =     0.00017484    0.00006057  -64.75154051
     atom   11 type  1   force =     0.00068919   -0.00100661   64.75253707
     atom   12 type  1   force =    -0.00001103   -0.00102604   -0.00107256
     atom   13 type  1   force =    -0.00096609    0.00058515  -64.75196639
     atom   14 type  1   force =    -0.00052715    0.00110016   64.75253707
     atom   15 type  1   force =    -0.00092835    0.00056281   -0.00107256
     atom   16 type  1   force =     0.00003496   -0.00114873  -64.75196639
     atom   17 type  1   force =     0.00000000    0.00002737   64.75300802
     atom   18 type  1   force =    -0.00156574   -0.00083759   -0.00109146
     atom   19 type  1   force =    -0.00005750    0.00006057  -64.75154051
     atom   20 type  1   force =    -0.00064178   -0.00100661   64.75253707
     atom   21 type  1   force =    -0.00053497    0.00033569   -0.00078278
     atom   22 type  1   force =     0.00005867   -0.00014064  -64.75154051
     atom   23 type  1   force =     0.00002371    0.00001369   64.75216895
     atom   24 type  1   force =     0.00090629    0.00056281   -0.00107256
     atom   25 type  1   force =    -0.00106321   -0.00062684  -64.75118227
     atom   26 type  1   force =    -0.00119264   -0.00005249   64.75253707
     atom   27 type  1   force =    -0.00001103   -0.00057179   -0.00078278
     The core correction contribution to forces
     atom    1 type  1   force =     0.00001114    0.00000430   -0.02047423
     atom    2 type  1   force =    -0.00000000    0.00000000    0.02052010
     atom    3 type  1   force =    -0.00000284    0.00001121   -0.00001621
     atom    4 type  1   force =     0.00001296    0.00000334   -0.02047646
     atom    5 type  1   force =    -0.00000293    0.00000818    0.02052104
     atom    6 type  1   force =    -0.00001113    0.00001826   -0.00001547
     atom    7 type  1   force =     0.00001287    0.00000129   -0.02047423
     atom    8 type  1   force =    -0.00000194    0.00000646    0.02052103
     atom    9 type  1   force =    -0.00000843    0.00001358   -0.00001547
     atom   10 type  1   force =     0.00001864   -0.00000210   -0.02047471
     atom   11 type  1   force =     0.00000854   -0.00000155    0.02052103
     atom   12 type  1   force =    -0.00000358    0.00000906   -0.00001653
     atom   13 type  1   force =     0.00000932    0.00000334   -0.02047646
     atom   14 type  1   force =     0.00000293    0.00000818    0.02052103
     atom   15 type  1   force =    -0.00000507    0.00001164   -0.00001653
     atom   16 type  1   force =     0.00001114    0.00000019   -0.02047645
     atom   17 type  1   force =    -0.00000000    0.00000872    0.02052343
     atom   18 type  1   force =    -0.00001383    0.00001358   -0.00001547
     atom   19 type  1   force =     0.00001874   -0.00000210   -0.02047471
     atom   20 type  1   force =     0.00000656   -0.00000155    0.02052104
     atom   21 type  1   force =    -0.00000432    0.00001121   -0.00001621
     atom   22 type  1   force =     0.00001869   -0.00000202   -0.02047471
     atom   23 type  1   force =     0.00000755    0.00000436    0.02051967
     atom   24 type  1   force =    -0.00000209    0.00001164   -0.00001653
     atom   25 type  1   force =     0.00000940    0.00000129   -0.02047423
     atom   26 type  1   force =     0.00000193    0.00000646    0.02052103
     atom   27 type  1   force =    -0.00000358    0.00000993   -0.00001621
     The Hubbard contrib.    to forces
     atom    1 type  1   force =     0.00000000    0.00000000    0.00000000
     atom    2 type  1   force =     0.00000000    0.00000000    0.00000000
     atom    3 type  1   force =     0.00000000    0.00000000    0.00000000
     atom    4 type  1   force =     0.00000000    0.00000000    0.00000000
     atom    5 type  1   force =     0.00000000    0.00000000    0.00000000
     atom    6 type  1   force =     0.00000000    0.00000000    0.00000000
     atom    7 type  1   force =     0.00000000    0.00000000    0.00000000
     atom    8 type  1   force =     0.00000000    0.00000000    0.00000000
     atom    9 type  1   force =     0.00000000    0.00000000    0.00000000
     atom   10 type  1   force =     0.00000000    0.00000000    0.00000000
     atom   11 type  1   force =     0.00000000    0.00000000    0.00000000
     atom   12 type  1   force =     0.00000000    0.00000000    0.00000000
     atom   13 type  1   force =     0.00000000    0.00000000    0.00000000
     atom   14 type  1   force =     0.00000000    0.00000000    0.00000000
     atom   15 type  1   force =     0.00000000    0.00000000    0.00000000
     atom   16 type  1   force =     0.00000000    0.00000000    0.00000000
     atom   17 type  1   force =     0.00000000    0.00000000    0.00000000
     atom   18 type  1   force =     0.00000000    0.00000000    0.00000000
     atom   19 type  1   force =     0.00000000    0.00000000    0.00000000
     atom   20 type  1   force =     0.00000000    0.00000000    0.00000000
     atom   21 type  1   force =     0.00000000    0.00000000    0.00000000
     atom   22 type  1   force =     0.00000000    0.00000000    0.00000000
     atom   23 type  1   force =     0.00000000    0.00000000    0.00000000
     atom   24 type  1   force =     0.00000000    0.00000000    0.00000000
     atom   25 type  1   force =     0.00000000    0.00000000    0.00000000
     atom   26 type  1   force =     0.00000000    0.00000000    0.00000000
     atom   27 type  1   force =     0.00000000    0.00000000    0.00000000
     The SCF correction term to forces
     atom    1 type  1   force =     0.00000000   -0.00002572    0.00011187
     atom    2 type  1   force =    -0.00000000    0.00000000   -0.00007671
     atom    3 type  1   force =    -0.00001797   -0.00001037   -0.00000534
     atom    4 type  1   force =    -0.00001231   -0.00000711    0.00012463
     atom    5 type  1   force =    -0.00000265   -0.00001961   -0.00008834
     atom    6 type  1   force =     0.00000000   -0.00003069   -0.00000717
     atom    7 type  1   force =    -0.00002228    0.00001286    0.00011187
     atom    8 type  1   force =    -0.00001830    0.00000751   -0.00008834
     atom    9 type  1   force =    -0.00002657    0.00001534   -0.00000717
     atom   10 type  1   force =    -0.00000968   -0.00000559    0.00011536
     atom   11 type  1   force =    -0.00001566    0.00001210   -0.00008834
     atom   12 type  1   force =     0.00000000    0.00001044   -0.00000942
     atom   13 type  1   force =     0.00001231   -0.00000711    0.00012463
     atom   14 type  1   force =     0.00000265   -0.00001961   -0.00008834
     atom   15 type  1   force =     0.00000905   -0.00000522   -0.00000942
     atom   16 type  1   force =     0.00000000    0.00001421    0.00012463
     atom   17 type  1   force =    -0.00000000   -0.00000000   -0.00009786
     atom   18 type  1   force =     0.00002657    0.00001534   -0.00000717
     atom   19 type  1   force =     0.00000968   -0.00000559    0.00011536
     atom   20 type  1   force =     0.00001566    0.00001210   -0.00008834
     atom   21 type  1   force =     0.00001797   -0.00001037   -0.00000534
     atom   22 type  1   force =     0.00000000    0.00001117    0.00011536
     atom   23 type  1   force =     0.00000000    0.00000000   -0.00008871
     atom   24 type  1   force =    -0.00000905   -0.00000522   -0.00000942
     atom   25 type  1   force =     0.00002228    0.00001286    0.00011187
     atom   26 type  1   force =     0.00001830    0.00000751   -0.00008834
     atom   27 type  1   force =     0.00000000    0.00002075   -0.00000534

     Total force =     0.000071     Total SCF correction =     0.000452
     SCF correction compared to forces is large: reduce conv_thr to get better values


     Computing stress (Cartesian axis) and pressure


     negative rho (up, down):  6.703E-05 0.000E+00
          total   stress  (Ry/bohr**3)                   (kbar)     P=      -28.62
  -0.00029060   0.00000000   0.00000000          -42.75        0.00        0.00
   0.00000000  -0.00029060   0.00000000            0.00      -42.75        0.00
   0.00000000   0.00000000  -0.00000243            0.00        0.00       -0.36

     kinetic stress (kbar)   8407.26     -0.00      0.00
                               -0.00   8407.26      0.00
                                0.00      0.00   8539.11

     local   stress (kbar)-151836.60     -0.00     -0.00
                               -0.00-151836.60      0.00
                               -0.00      0.00 172577.21

     nonloc. stress (kbar)  -5355.63     -0.00      0.00
                                0.00  -5355.63      0.00
                                0.00      0.00  -5357.41

     hartree stress (kbar)  80512.33     -0.00     -0.00
                               -0.00  80512.33      0.00
                               -0.00      0.00 -77363.83

     exc-cor stress (kbar)  21857.87      0.00     -0.00
                                0.00  21857.87      0.00
                               -0.00      0.00  21850.89

     corecor stress (kbar) -25216.39     -0.00      0.00
                               -0.00 -25216.39     -0.00
                                0.00     -0.00 -25230.71

     ewald   stress (kbar)  71588.40      0.00      0.00
                                0.00  71588.40     -0.00
                                0.00     -0.00 -95015.62

     hubbard stress (kbar)      0.00      0.00      0.00
                                0.00      0.00      0.00
                                0.00      0.00      0.00

     DFT-D   stress (kbar)      0.00      0.00      0.00
                                0.00      0.00      0.00
                                0.00      0.00      0.00

     XDM     stress (kbar)      0.00      0.00      0.00
                                0.00      0.00      0.00
                                0.00      0.00      0.00

     dft-nl  stress (kbar)      0.00      0.00      0.00
                                0.00      0.00      0.00
                                0.00      0.00      0.00

     TS-vdW  stress (kbar)      0.00      0.00      0.00
                                0.00      0.00      0.00
                                0.00      0.00      0.00


     Energy error            =      4.0E-05
     Gradient error          =      2.2E-05

     bfgs converged in   7 scf cycles and   6 bfgs steps
     (criteria: energy <  1.0E-04 Ry, force <  1.0E-03 Ry/Bohr)

     End of BFGS Geometry Optimization

     Final energy   =   -3104.1962824007 Ry

     File ./surface.bfgs deleted, as requested
Begin final coordinates

ATOMIC_POSITIONS (angstrom)
Au           -0.0000014748        1.7029560193        4.8362401417
Au            0.0000000000        0.0000000000       -0.0196162658
Au            1.4747878253        0.8514674450        2.4082247859
Au           -1.4747489894        4.2573185082        4.8362495337
Au           -1.4747540974        2.5544126683       -0.0195992608
Au            0.0000014748        3.4058885628        2.4082387414
Au           -2.9495180379        6.8116685644        4.8362401417
Au           -2.9495097862        5.1087644501       -0.0195992608
Au           -1.4747307700        5.9601997382        2.4082387414
Au            2.9495485248        1.7029243377        4.8362586048
Au            2.9495633113       -0.0000318215       -0.0195992608
Au            4.4243204748        0.8514335375        2.4082344900
Au            1.4747460398        4.2573185082        4.8362495337
Au            1.4747540974        2.5544126683       -0.0195992608
Au            2.9495247852        3.4058546025        2.4082344900
Au           -0.0000014748        6.8116561318        4.8362495337
Au            0.0000000000        5.1087635313       -0.0195892796
Au            1.4747337196        5.9601997382        2.4082387414
Au            5.8990865256        1.7029243377        4.8362586048
Au            5.8990746887       -0.0000318215       -0.0195992608
Au            7.3738531243        0.8514674450        2.4082247859
Au            4.4243175252        4.2572991758        4.8362586048
Au            4.4243190000        2.5543817656       -0.0195907823
Au            5.8991161644        3.4058546025        2.4082344900
Au            2.9495150883        6.8116685644        4.8362401417
Au            2.9495097862        5.1087644501       -0.0195992608
Au            4.4243204748        5.9602078524        2.4082247859
End final coordinates



     Writing output data file ./surface.save/

     init_run     :      1.35s CPU      1.45s WALL (       1 calls)
     electrons    :    154.72s CPU    158.63s WALL (       7 calls)
     update_pot   :      1.21s CPU      1.22s WALL (       6 calls)
     forces       :      6.24s CPU      6.36s WALL (       7 calls)
     stress       :     28.38s CPU     28.71s WALL (       7 calls)

     Called by init_run:
     wfcinit      :      0.77s CPU      0.80s WALL (       1 calls)
     wfcinit:atom :      0.00s CPU      0.00s WALL (       4 calls)
     wfcinit:wfcr :      0.74s CPU      0.77s WALL (       4 calls)
     potinit      :      0.08s CPU      0.09s WALL (       1 calls)
     hinit0       :      0.16s CPU      0.21s WALL (       1 calls)

     Called by electrons:
     c_bands      :    124.90s CPU    126.51s WALL (      61 calls)
     sum_band     :     22.26s CPU     23.58s WALL (      61 calls)
     v_of_rho     :      1.30s CPU      1.32s WALL (      61 calls)
     v_h          :      0.09s CPU      0.09s WALL (      61 calls)
     v_xc         :      1.49s CPU      1.51s WALL (      75 calls)
     newd         :      6.73s CPU      7.45s WALL (      61 calls)
     mix_rho      :      0.13s CPU      0.14s WALL (      61 calls)

     Called by c_bands:
     init_us_2    :      0.70s CPU      0.72s WALL (     548 calls)
     cegterg      :    122.04s CPU    123.61s WALL (     244 calls)

     Called by sum_band:
     sum_band:wei :      0.01s CPU      0.02s WALL (      61 calls)
     sum_band:loo :     13.19s CPU     13.40s WALL (      61 calls)
     sum_band:buf :      0.10s CPU      0.10s WALL (     244 calls)
     sum_band:ini :      0.34s CPU      0.35s WALL (     244 calls)
     sum_band:cal :      5.59s CPU      5.62s WALL (     244 calls)
     sum_band:bec :      0.24s CPU      0.24s WALL (     244 calls)
     addusdens    :      4.47s CPU      5.53s WALL (      61 calls)
     addusd:skk   :      0.08s CPU      0.08s WALL (      61 calls)
     addusd:dgemm :      1.53s CPU      2.56s WALL (      61 calls)
     addusd:qvan2 :      2.42s CPU      2.44s WALL (      61 calls)

     Called by *egterg:
     cdiaghg      :     21.82s CPU     21.98s WALL (     999 calls)
     cegterg:over :     11.98s CPU     12.07s WALL (     807 calls)
     cegterg:upda :      5.11s CPU      5.15s WALL (     807 calls)
     cegterg:last :     13.20s CPU     13.29s WALL (     597 calls)
     cdiaghg:chol :      0.84s CPU      0.85s WALL (     999 calls)
     cdiaghg:inve :      0.99s CPU      1.00s WALL (     999 calls)
     cdiaghg:para :      2.20s CPU      2.21s WALL (    1998 calls)
     h_psi        :     59.36s CPU     60.50s WALL (    1055 calls)
     s_psi        :      7.38s CPU      7.44s WALL (    1055 calls)
     g_psi        :      0.07s CPU      0.07s WALL (     807 calls)

     Called by h_psi:
     h_psi:calbec :     16.70s CPU     16.81s WALL (    1055 calls)
     vloc_psi     :     34.84s CPU     35.82s WALL (    1055 calls)
     add_vuspsi   :      7.70s CPU      7.76s WALL (    1055 calls)

     General routines
     calbec       :     27.71s CPU     27.89s WALL (    1439 calls)
     fft          :      1.47s CPU      1.53s WALL (     967 calls)
     ffts         :      0.06s CPU      0.07s WALL (     122 calls)
     fftw         :     39.88s CPU     40.96s WALL (  288264 calls)
     interpolate  :      0.10s CPU      0.11s WALL (      61 calls)

     Parallel routines
     fft_scatt_xy :      2.15s CPU      2.20s WALL (  289353 calls)
     fft_scatt_yz :     28.44s CPU     29.25s WALL (  289353 calls)

     PWSCF        :   3m13.41s CPU   3m18.78s WALL


   This run was terminated on:  17:17: 1   6Dec2021            

=------------------------------------------------------------------------------=
   JOB DONE.
=------------------------------------------------------------------------------=
