
     Program PWSCF v.6.7MaX starts on 10Dec2021 at  3:51:35 

     This program is part of the open-source Quantum ESPRESSO suite
     for quantum simulation of materials; please cite
         "P. Giannozzi et al., J. Phys.:Condens. Matter 21 395502 (2009);
         "P. Giannozzi et al., J. Phys.:Condens. Matter 29 465901 (2017);
          URL http://www.quantum-espresso.org", 
     in publications or presentations arising from this work. More details at
     http://www.quantum-espresso.org/quote

     Parallel version (MPI), running on    16 processors

     MPI processes distributed on     1 nodes
     R & G space division:  proc/nbgrp/npool/nimage =      16
     Reading input from ag_surface.111.qe.7656380.1_1_3.in

     Current dimensions of program PWSCF are:
     Max number of different atomic species (ntypx) = 10
     Max number of k-points (npk) =  40000
     Max angular momentum in pseudopotentials (lmaxx) =  3

     Subspace diagonalization in iterative solution of the eigenvalue problem:
     one sub-group per band group will be used
     scalapack distributed-memory algorithm (size of sub-group:  4*  4 procs)


     Parallelization info
     --------------------
     sticks:   dense  smooth     PW     G-vecs:    dense   smooth      PW
     Min          40      15      5                 8786     2189     385
     Max          41      16      6                 8813     2240     410
     Sum         649     253     85               140813    35585    6333



     bravais-lattice index     =           14
     lattice parameter (alat)  =       5.5595  a.u.
     unit-cell volume          =    1599.3508 (a.u.)^3
     number of atoms/cell      =            9
     number of atomic types    =            1
     number of electrons       =       171.00
     number of Kohn-Sham states=          103
     kinetic-energy cutoff     =      30.0000  Ry
     charge density cutoff     =     300.0000  Ry
     scf convergence threshold =      1.0E-06
     mixing beta               =       0.3000
     number of iterations used =            8  plain     mixing
     energy convergence thresh.=      1.0E-04
     force convergence thresh. =      1.0E-03
     Exchange-correlation=  SLA  PW   PBX  PBC
                           (   1   4   3   4   0   0   0)
     nstep                     =           50


     celldm(1)=   5.559480  celldm(2)=   1.000000  celldm(3)=  10.747579
     celldm(4)=   0.000000  celldm(5)=   0.000000  celldm(6)=  -0.500000

     crystal axes: (cart. coord. in units of alat)
               a(1) = (   1.000000   0.000000   0.000000 )  
               a(2) = (  -0.500000   0.866025   0.000000 )  
               a(3) = (   0.000000   0.000000  10.747579 )  

     reciprocal axes: (cart. coord. in units 2 pi/alat)
               b(1) = (  1.000000  0.577350 -0.000000 )  
               b(2) = (  0.000000  1.154701  0.000000 )  
               b(3) = (  0.000000 -0.000000  0.093044 )  


     PseudoPot. # 1 for Ag read from file:
     /expanse/lustre/projects/csd622/tpascal/nano110/qe/pseudo/ag_pbe_v1.4.uspp.F.UPF
     MD5 check sum: d66d668201baa78d5eb5b04ef7011058
     Pseudo is Ultrasoft + core correction, Zval = 19.0
     Generated by new atomic code, or converted to UPF format
     Using radial grid of  887 points,  6 beta functions with: 
                l(1) =   0
                l(2) =   0
                l(3) =   1
                l(4) =   1
                l(5) =   2
                l(6) =   2
     Q(r) pseudized with  6 coefficients,  rinner =    1.300   1.300   1.300
                                                       1.300   1.300

     atomic species   valence    mass     pseudopotential
        Ag            19.00   107.86820     Ag( 1.00)

     No symmetry found


                                    s                        frac. trans.

      isym =  1     identity                                     

 cryst.   s( 1) = (     1          0          0      )
                  (     0          1          0      )
                  (     0          0          1      )

 cart.    s( 1) = (  1.0000000  0.0000000  0.0000000 )
                  (  0.0000000  1.0000000  0.0000000 )
                  (  0.0000000  0.0000000  1.0000000 )


     point group C_1 (1)    
     there are  1 classes
     the character table:

       E    
A      1.00

     the symmetry operations in each class and the name of the first element:

     E        1
          identity                                               

   Cartesian axes

     site n.     atom                  positions (alat units)
         1           Ag  tau(   1) = (   0.3333330   0.6666670   1.6329948  )
         2           Ag  tau(   2) = (   0.3333330   0.6666670   4.0824858  )
         3           Ag  tau(   3) = (   0.3333330   0.6666670   6.5319768  )
         4           Ag  tau(   4) = (   0.0000000   0.0000000   0.0000000  )
         5           Ag  tau(   5) = (   0.0000000   0.0000000   2.4494910  )
         6           Ag  tau(   6) = (   0.0000000   0.0000000   4.8989820  )
         7           Ag  tau(   7) = (   0.6666670   0.3333330   0.8164962  )
         8           Ag  tau(   8) = (   0.6666670   0.3333330   3.2659872  )
         9           Ag  tau(   9) = (   0.6666670   0.3333330   5.7154782  )

   Crystallographic axes

     site n.     atom                  positions (cryst. coord.)
         1           Ag  tau(   1) = (  0.7182334  0.7698008  0.1519407  )
         2           Ag  tau(   2) = (  0.7182334  0.7698008  0.3798517  )
         3           Ag  tau(   3) = (  0.7182334  0.7698008  0.6077626  )
         4           Ag  tau(   4) = (  0.0000000  0.0000000  0.0000000  )
         5           Ag  tau(   5) = (  0.0000000  0.0000000  0.2279110  )
         6           Ag  tau(   6) = (  0.0000000  0.0000000  0.4558219  )
         7           Ag  tau(   7) = (  0.8591169  0.3848998  0.0759702  )
         8           Ag  tau(   8) = (  0.8591169  0.3848998  0.3038812  )
         9           Ag  tau(   9) = (  0.8591169  0.3848998  0.5317922  )

     number of k points=    10  Gaussian smearing, width (Ry)=  0.0030
                       cart. coord. in units 2pi/alat
        k(    1) = (   0.0000000   0.0000000   0.0000000), wk =   0.1250000
        k(    2) = (   0.0000000   0.2886751   0.0000000), wk =   0.2500000
        k(    3) = (   0.0000000  -0.5773503   0.0000000), wk =   0.1250000
        k(    4) = (   0.2500000   0.4330127   0.0000000), wk =   0.2500000
        k(    5) = (  -0.2500000   0.1443376   0.0000000), wk =   0.2500000
        k(    6) = (   0.2500000   0.1443376   0.0000000), wk =   0.2500000
        k(    7) = (   0.5000000  -0.2886751   0.0000000), wk =   0.1250000
        k(    8) = (  -0.5000000  -0.2886751   0.0000000), wk =   0.1250000
        k(    9) = (  -0.2500000   0.4330127   0.0000000), wk =   0.2500000
        k(   10) = (   0.5000000   0.0000000   0.0000000), wk =   0.2500000

                       cryst. coord.
        k(    1) = (   0.0000000   0.0000000   0.0000000), wk =   0.1250000
        k(    2) = (   0.0000000   0.2500000   0.0000000), wk =   0.2500000
        k(    3) = (   0.0000000  -0.5000000   0.0000000), wk =   0.1250000
        k(    4) = (   0.2500000   0.2500000   0.0000000), wk =   0.2500000
        k(    5) = (  -0.2500000   0.2500000   0.0000000), wk =   0.2500000
        k(    6) = (   0.2500000   0.0000000   0.0000000), wk =   0.2500000
        k(    7) = (   0.5000000  -0.5000000   0.0000000), wk =   0.1250000
        k(    8) = (  -0.5000000   0.0000000   0.0000000), wk =   0.1250000
        k(    9) = (  -0.2500000   0.5000000   0.0000000), wk =   0.2500000
        k(   10) = (   0.5000000  -0.2500000   0.0000000), wk =   0.2500000

     Dense  grid:   140813 G-vectors     FFT dimensions: (  32,  32, 360)

     Smooth grid:    35585 G-vectors     FFT dimensions: (  20,  20, 216)

     Dynamical RAM for                 wfc:       0.44 MB

     Dynamical RAM for     wfc (w. buffer):       4.79 MB

     Dynamical RAM for           str. fact:       0.13 MB

     Dynamical RAM for           local pot:       0.00 MB

     Dynamical RAM for          nlocal pot:       0.68 MB

     Dynamical RAM for                qrad:       1.39 MB

     Dynamical RAM for          rho,v,vnew:       0.94 MB

     Dynamical RAM for               rhoin:       0.31 MB

     Dynamical RAM for            rho*nmix:       2.15 MB

     Dynamical RAM for           G-vectors:       0.52 MB

     Dynamical RAM for          h,s,v(r/c):       0.12 MB

     Dynamical RAM for          <psi|beta>:       0.25 MB

     Dynamical RAM for                 psi:       0.87 MB

     Dynamical RAM for                hpsi:       0.87 MB

     Dynamical RAM for                spsi:       0.87 MB

     Dynamical RAM for      wfcinit/wfcrot:       1.30 MB

     Dynamical RAM for           addusdens:      26.21 MB

     Dynamical RAM for          addusforce:      28.46 MB

     Dynamical RAM for         addusstress:      27.02 MB

     Estimated static dynamical RAM per process >      12.09 MB

     Estimated max dynamical RAM per process >      40.56 MB

     Estimated total dynamical RAM >     648.93 MB

     Initial potential from superposition of free atoms

     starting charge  166.49957, renormalised to  171.00000

     negative rho (up, down):  7.796E-04 0.000E+00
     Starting wfcs are  117 randomized atomic wfcs

     total cpu time spent up to now is        0.7 secs

     Self-consistent Calculation

     iteration #  1     ecut=    30.00 Ry     beta= 0.30
     Davidson diagonalization with overlap
     ethr =  1.00E-02,  avg # of iterations =  6.3

     total cpu time spent up to now is        2.2 secs

     total energy              =   -2657.62156052 Ry
     estimated scf accuracy    <      13.21937619 Ry

     iteration #  2     ecut=    30.00 Ry     beta= 0.30
     Davidson diagonalization with overlap
     ethr =  7.73E-03,  avg # of iterations =  5.2

     total cpu time spent up to now is        3.7 secs

     total energy              =   -2650.06956061 Ry
     estimated scf accuracy    <     401.01822562 Ry

     iteration #  3     ecut=    30.00 Ry     beta= 0.30
     Davidson diagonalization with overlap
     ethr =  7.73E-03,  avg # of iterations =  4.0

     total cpu time spent up to now is        4.8 secs

     total energy              =   -2658.36074365 Ry
     estimated scf accuracy    <      28.67702189 Ry

     iteration #  4     ecut=    30.00 Ry     beta= 0.30
     Davidson diagonalization with overlap
     ethr =  7.73E-03,  avg # of iterations =  3.0

     total cpu time spent up to now is        5.9 secs

     total energy              =   -2658.98300731 Ry
     estimated scf accuracy    <      25.02717009 Ry

     iteration #  5     ecut=    30.00 Ry     beta= 0.30
     Davidson diagonalization with overlap
     ethr =  7.73E-03,  avg # of iterations =  2.4

     total cpu time spent up to now is        6.8 secs

     total energy              =   -2660.01354148 Ry
     estimated scf accuracy    <      25.53692042 Ry

     iteration #  6     ecut=    30.00 Ry     beta= 0.30
     Davidson diagonalization with overlap
     ethr =  7.73E-03,  avg # of iterations =  1.7

     total cpu time spent up to now is        7.8 secs

     total energy              =   -2660.34369543 Ry
     estimated scf accuracy    <       1.76147070 Ry

     iteration #  7     ecut=    30.00 Ry     beta= 0.30
     Davidson diagonalization with overlap
     ethr =  1.03E-03,  avg # of iterations =  2.1

     total cpu time spent up to now is        8.7 secs

     total energy              =   -2660.35042071 Ry
     estimated scf accuracy    <       0.32722149 Ry

     iteration #  8     ecut=    30.00 Ry     beta= 0.30
     Davidson diagonalization with overlap
     ethr =  1.91E-04,  avg # of iterations =  4.3

     total cpu time spent up to now is        9.8 secs

     total energy              =   -2660.33988332 Ry
     estimated scf accuracy    <       0.49954352 Ry

     iteration #  9     ecut=    30.00 Ry     beta= 0.30
     Davidson diagonalization with overlap
     ethr =  1.91E-04,  avg # of iterations =  2.9

     total cpu time spent up to now is       10.8 secs

     total energy              =   -2660.35230394 Ry
     estimated scf accuracy    <       0.13683317 Ry

     iteration # 10     ecut=    30.00 Ry     beta= 0.30
     Davidson diagonalization with overlap
     ethr =  8.00E-05,  avg # of iterations =  3.1

     negative rho (up, down):  1.130E-06 0.000E+00

     total cpu time spent up to now is       11.8 secs

     total energy              =   -2660.35446005 Ry
     estimated scf accuracy    <       0.06077638 Ry

     iteration # 11     ecut=    30.00 Ry     beta= 0.30
     Davidson diagonalization with overlap
     ethr =  3.55E-05,  avg # of iterations =  4.5

     negative rho (up, down):  6.554E-06 0.000E+00

     total cpu time spent up to now is       13.0 secs

     total energy              =   -2660.35489335 Ry
     estimated scf accuracy    <       0.01287703 Ry

     iteration # 12     ecut=    30.00 Ry     beta= 0.30
     Davidson diagonalization with overlap
     ethr =  7.53E-06,  avg # of iterations =  3.9

     negative rho (up, down):  1.809E-04 0.000E+00

     total cpu time spent up to now is       14.0 secs

     total energy              =   -2660.35568852 Ry
     estimated scf accuracy    <       0.00482024 Ry

     iteration # 13     ecut=    30.00 Ry     beta= 0.30
     Davidson diagonalization with overlap
     ethr =  2.82E-06,  avg # of iterations =  5.6

     negative rho (up, down):  1.827E-04 0.000E+00

     total cpu time spent up to now is       15.2 secs

     total energy              =   -2660.35582628 Ry
     estimated scf accuracy    <       0.00418287 Ry

     iteration # 14     ecut=    30.00 Ry     beta= 0.30
     Davidson diagonalization with overlap
     ethr =  2.45E-06,  avg # of iterations =  1.4

     negative rho (up, down):  4.079E-04 0.000E+00

     total cpu time spent up to now is       16.1 secs

     total energy              =   -2660.35589544 Ry
     estimated scf accuracy    <       0.00026848 Ry

     iteration # 15     ecut=    30.00 Ry     beta= 0.30
     Davidson diagonalization with overlap
     ethr =  1.57E-07,  avg # of iterations =  1.2

     negative rho (up, down):  5.104E-04 0.000E+00

     total cpu time spent up to now is       16.9 secs

     total energy              =   -2660.35590126 Ry
     estimated scf accuracy    <       0.00015077 Ry

     iteration # 16     ecut=    30.00 Ry     beta= 0.30
     Davidson diagonalization with overlap
     ethr =  8.82E-08,  avg # of iterations =  1.0

     negative rho (up, down):  4.966E-04 0.000E+00

     total cpu time spent up to now is       17.7 secs

     total energy              =   -2660.35590271 Ry
     estimated scf accuracy    <       0.00003908 Ry

     iteration # 17     ecut=    30.00 Ry     beta= 0.30
     Davidson diagonalization with overlap
     ethr =  2.29E-08,  avg # of iterations =  1.0

     negative rho (up, down):  5.823E-04 0.000E+00

     total cpu time spent up to now is       18.6 secs

     total energy              =   -2660.35590376 Ry
     estimated scf accuracy    <       0.00014378 Ry

     iteration # 18     ecut=    30.00 Ry     beta= 0.30
     Davidson diagonalization with overlap
     ethr =  2.29E-08,  avg # of iterations =  1.0

     negative rho (up, down):  6.330E-04 0.000E+00

     total cpu time spent up to now is       19.4 secs

     End of self-consistent calculation

          k = 0.0000 0.0000 0.0000 (  4413 PWs)   bands (ev):

   -82.2546 -82.2537 -82.1883 -82.1877 -82.1799 -82.1703 -82.1699 -82.1042
   -82.1027 -45.8464 -45.8351 -45.6983 -45.6666 -45.6598 -45.6573 -45.6513
   -45.6412 -45.6340 -45.6181 -45.6144 -45.6082 -45.6059 -45.5963 -45.5959
   -45.5941 -45.5936 -45.5900 -45.5829 -45.5815 -45.5597 -45.5522 -45.5515
   -45.5140 -45.5126 -45.4880 -45.4866   2.3770   2.6416   2.9847   3.3657
     3.5646   3.7337   3.7407   3.7837   3.8548   4.2986   4.4048   4.6713
     4.7874   5.0311   5.0825   5.1119   5.1228   5.1617   5.1923   5.2048
     5.2318   5.2473   5.2644   5.2648   5.2928   5.2966   5.3225   5.3397
     5.3463   5.4912   5.5086   5.5290   5.5875   5.6439   5.7831   5.9226
     6.0474   6.1100   6.2081   6.2118   6.2196   6.2315   6.2395   6.3394
     6.3510   6.3557   6.4077   6.5041   6.7168   6.8404   6.8904   7.2263
     8.3064   9.4793   9.7858  13.2877  13.9251  13.9672  15.5440  15.6437
    17.5806  17.9093  20.0302  20.4212  22.7445  23.0423  25.1892

     occupation numbers 
     1.0000   1.0000   1.0000   1.0000   1.0000   1.0000   1.0000   1.0000
     1.0000   1.0000   1.0000   1.0000   1.0000   1.0000   1.0000   1.0000
     1.0000   1.0000   1.0000   1.0000   1.0000   1.0000   1.0000   1.0000
     1.0000   1.0000   1.0000   1.0000   1.0000   1.0000   1.0000   1.0000
     1.0000   1.0000   1.0000   1.0000   1.0000   1.0000   1.0000   1.0000
     1.0000   1.0000   1.0000   1.0000   1.0000   1.0000   1.0000   1.0000
     1.0000   1.0000   1.0000   1.0000   1.0000   1.0000   1.0000   1.0000
     1.0000   1.0000   1.0000   1.0000   1.0000   1.0000   1.0000   1.0000
     1.0000   1.0000   1.0000   1.0000   1.0000   1.0000   1.0000   1.0000
     1.0000   1.0000   1.0000   1.0000   1.0000   1.0000   1.0000   1.0000
     1.0000   1.0000   1.0000   1.0000   1.0000   1.0000   1.0000   1.0000
     1.0000   1.0000   0.0000   0.0000   0.0000   0.0000   0.0000   0.0000
     0.0000   0.0000   0.0000   0.0000   0.0000   0.0000   0.0000

          k = 0.0000 0.2887 0.0000 (  4418 PWs)   bands (ev):

   -82.2500 -82.2492 -82.1838 -82.1833 -82.1757 -82.1657 -82.1654 -82.1000
   -82.0985 -45.8381 -45.8304 -45.7135 -45.7012 -45.6839 -45.6716 -45.6657
   -45.6605 -45.6497 -45.6479 -45.6422 -45.6341 -45.6297 -45.6261 -45.6160
   -45.6149 -45.6056 -45.6051 -45.5966 -45.5952 -45.5787 -45.5594 -45.5585
   -45.5470 -45.5459 -45.5053 -45.5039   3.5828   3.7497   3.9746   4.0516
     4.1395   4.1953   4.2159   4.3271   4.3693   4.4479   4.4518   4.5023
     4.5673   4.5898   4.6678   4.7215   4.7967   4.8386   5.0544   5.1754
     5.2280   5.3132   5.4140   5.5008   5.5878   5.6514   5.8111   5.8246
     5.8598   5.8936   5.9070   5.9209   5.9468   5.9625   5.9807   5.9841
     6.0043   6.0311   6.0792   6.1001   6.1298   6.1611   6.2044   6.2981
     6.3343   6.3674   6.4631   6.5238   6.8086   7.4707   8.3536   9.2107
    10.4104  11.6393  12.4982  14.3425  15.1646  15.2464  16.8010  16.9584
    18.7539  18.8698  19.0010  19.1769  19.3408  19.8882  20.5180

     occupation numbers 
     1.0000   1.0000   1.0000   1.0000   1.0000   1.0000   1.0000   1.0000
     1.0000   1.0000   1.0000   1.0000   1.0000   1.0000   1.0000   1.0000
     1.0000   1.0000   1.0000   1.0000   1.0000   1.0000   1.0000   1.0000
     1.0000   1.0000   1.0000   1.0000   1.0000   1.0000   1.0000   1.0000
     1.0000   1.0000   1.0000   1.0000   1.0000   1.0000   1.0000   1.0000
     1.0000   1.0000   1.0000   1.0000   1.0000   1.0000   1.0000   1.0000
     1.0000   1.0000   1.0000   1.0000   1.0000   1.0000   1.0000   1.0000
     1.0000   1.0000   1.0000   1.0000   1.0000   1.0000   1.0000   1.0000
     1.0000   1.0000   1.0000   1.0000   1.0000   1.0000   1.0000   1.0000
     1.0000   1.0000   1.0000   1.0000   1.0000   1.0000   1.0000   1.0000
     1.0000   1.0000   1.0000   1.0000   1.0000   1.0000   1.0000   1.0000
     0.0000   0.0000   0.0000   0.0000   0.0000   0.0000   0.0000   0.0000
     0.0000   0.0000   0.0000   0.0000   0.0000   0.0000   0.0000

          k = 0.0000-0.5774 0.0000 (  4440 PWs)   bands (ev):

   -82.2455 -82.2447 -82.1795 -82.1789 -82.1716 -82.1612 -82.1609 -82.0958
   -82.0944 -45.8363 -45.8287 -45.7543 -45.7454 -45.7120 -45.7115 -45.7000
   -45.6870 -45.6865 -45.6728 -45.6654 -45.6479 -45.6452 -45.6426 -45.6252
   -45.6245 -45.6100 -45.6091 -45.6043 -45.6028 -45.5920 -45.5827 -45.5816
   -45.5639 -45.5634 -45.5182 -45.5168   3.5607   3.5935   3.7210   3.7738
     3.7962   3.9119   3.9571   4.0067   4.0078   4.0955   4.1200   4.1371
     4.2888   4.3319   4.3663   4.4484   4.6234   4.6593   5.2338   5.2873
     5.5653   5.6281   5.8328   5.8332   5.8820   6.0664   6.0859   6.1168
     6.1447   6.2671   6.3775   6.4674   6.6147   6.6898   6.7351   6.7656
     6.7734   6.7761   6.8166   6.8234   6.8510   6.8525   6.9329   6.9845
     7.1326   9.5812   9.8705  10.3073  10.4186  10.5907  10.8895  10.8953
    11.3199  11.4405  12.9946  13.3109  13.8846  14.0284  14.8967  15.4925
    16.1087  16.3891  16.9031  17.8084  18.0359  18.4477  18.6686

     occupation numbers 
     1.0000   1.0000   1.0000   1.0000   1.0000   1.0000   1.0000   1.0000
     1.0000   1.0000   1.0000   1.0000   1.0000   1.0000   1.0000   1.0000
     1.0000   1.0000   1.0000   1.0000   1.0000   1.0000   1.0000   1.0000
     1.0000   1.0000   1.0000   1.0000   1.0000   1.0000   1.0000   1.0000
     1.0000   1.0000   1.0000   1.0000   1.0000   1.0000   1.0000   1.0000
     1.0000   1.0000   1.0000   1.0000   1.0000   1.0000   1.0000   1.0000
     1.0000   1.0000   1.0000   1.0000   1.0000   1.0000   1.0000   1.0000
     1.0000   1.0000   1.0000   1.0000   1.0000   1.0000   1.0000   1.0000
     1.0000   1.0000   1.0000   1.0000   1.0000   1.0000   1.0000   1.0000
     1.0000   1.0000   1.0000   1.0000   1.0000   1.0000   1.0000   1.0000
     1.0000   0.9979   0.0000   0.0000   0.0000   0.0000   0.0000   0.0000
     0.0000   0.0000   0.0000   0.0000   0.0000   0.0000   0.0000   0.0000
     0.0000   0.0000   0.0000   0.0000   0.0000   0.0000   0.0000

          k = 0.2500 0.4330 0.0000 (  4451 PWs)   bands (ev):

   -82.2455 -82.2447 -82.1795 -82.1790 -82.1714 -82.1613 -82.1610 -82.0957
   -82.0942 -45.8338 -45.8286 -45.7262 -45.7200 -45.7109 -45.6983 -45.6827
   -45.6824 -45.6678 -45.6655 -45.6589 -45.6577 -45.6522 -45.6467 -45.6420
   -45.6405 -45.6246 -45.6205 -45.6162 -45.6087 -45.6074 -45.5698 -45.5686
   -45.5557 -45.5549 -45.5430 -45.5417   3.9370   3.9528   4.0190   4.0481
     4.2835   4.3212   4.3627   4.4193   4.4748   4.5006   4.5675   4.6076
     4.6402   4.6548   4.7395   4.7580   4.9124   4.9448   5.0026   5.0394
     5.1538   5.2177   5.2689   5.3851   5.4032   5.4937   5.5357   5.6207
     5.6818   5.7550   5.7816   5.8610   6.0443   6.1090   6.1334   6.1901
     6.2158   6.2916   6.4295   6.6119   6.7501   6.7671   6.8822   7.0129
     7.0637   9.1885   9.3566   9.6108  10.0267  10.6292  11.4026  12.3421
    13.3725  14.4815  15.2340  15.3203  15.5692  15.6344  15.8213  16.0245
    16.1758  16.4092  16.8625  16.9890  17.2521  17.5289  17.7892

     occupation numbers 
     1.0000   1.0000   1.0000   1.0000   1.0000   1.0000   1.0000   1.0000
     1.0000   1.0000   1.0000   1.0000   1.0000   1.0000   1.0000   1.0000
     1.0000   1.0000   1.0000   1.0000   1.0000   1.0000   1.0000   1.0000
     1.0000   1.0000   1.0000   1.0000   1.0000   1.0000   1.0000   1.0000
     1.0000   1.0000   1.0000   1.0000   1.0000   1.0000   1.0000   1.0000
     1.0000   1.0000   1.0000   1.0000   1.0000   1.0000   1.0000   1.0000
     1.0000   1.0000   1.0000   1.0000   1.0000   1.0000   1.0000   1.0000
     1.0000   1.0000   1.0000   1.0000   1.0000   1.0000   1.0000   1.0000
     1.0000   1.0000   1.0000   1.0000   1.0000   1.0000   1.0000   1.0000
     1.0000   1.0000   1.0000   1.0000   1.0000   1.0000   1.0000   1.0000
     1.0000   1.0000   1.0000   0.9674   0.0000   0.0000   0.0000   0.0000
     0.0000   0.0000   0.0000   0.0000   0.0000   0.0000   0.0000   0.0000
     0.0000   0.0000   0.0000   0.0000   0.0000   0.0000   0.0000

          k =-0.2500 0.1443 0.0000 (  4418 PWs)   bands (ev):

   -82.2500 -82.2493 -82.1838 -82.1833 -82.1757 -82.1657 -82.1654 -82.1000
   -82.0985 -45.8362 -45.8292 -45.7217 -45.7073 -45.6768 -45.6736 -45.6662
   -45.6595 -45.6503 -45.6502 -45.6489 -45.6349 -45.6241 -45.6223 -45.6134
   -45.6122 -45.6080 -45.6076 -45.5959 -45.5952 -45.5739 -45.5600 -45.5591
   -45.5483 -45.5472 -45.5027 -45.5013   3.6156   3.7083   4.0215   4.0449
     4.1367   4.1678   4.2358   4.2470   4.2770   4.3857   4.4292   4.5371
     4.6141   4.6397   4.7524   4.8028   4.8443   4.8654   4.9860   5.1029
     5.3495   5.3758   5.3985   5.5218   5.5347   5.6896   5.7497   5.7882
     5.8253   5.8428   5.8638   5.8896   5.8955   5.9398   5.9519   5.9731
     5.9801   6.0143   6.0445   6.1042   6.1234   6.2624   6.2930   6.3117
     6.3885   6.4765   6.4844   6.5164   6.7339   7.4544   8.3901   9.1491
    10.4123  11.6554  12.4951  14.3413  15.1834  15.2230  16.8206  16.9328
    18.6961  18.8490  18.9648  19.1896  19.3336  19.9029  20.5467

     occupation numbers 
     1.0000   1.0000   1.0000   1.0000   1.0000   1.0000   1.0000   1.0000
     1.0000   1.0000   1.0000   1.0000   1.0000   1.0000   1.0000   1.0000
     1.0000   1.0000   1.0000   1.0000   1.0000   1.0000   1.0000   1.0000
     1.0000   1.0000   1.0000   1.0000   1.0000   1.0000   1.0000   1.0000
     1.0000   1.0000   1.0000   1.0000   1.0000   1.0000   1.0000   1.0000
     1.0000   1.0000   1.0000   1.0000   1.0000   1.0000   1.0000   1.0000
     1.0000   1.0000   1.0000   1.0000   1.0000   1.0000   1.0000   1.0000
     1.0000   1.0000   1.0000   1.0000   1.0000   1.0000   1.0000   1.0000
     1.0000   1.0000   1.0000   1.0000   1.0000   1.0000   1.0000   1.0000
     1.0000   1.0000   1.0000   1.0000   1.0000   1.0000   1.0000   1.0000
     1.0000   1.0000   1.0000   1.0000   1.0000   1.0000   1.0000   1.0000
     0.0000   0.0000   0.0000   0.0000   0.0000   0.0000   0.0000   0.0000
     0.0000   0.0000   0.0000   0.0000   0.0000   0.0000   0.0000

          k = 0.2500 0.1443 0.0000 (  4418 PWs)   bands (ev):

   -82.2501 -82.2493 -82.1839 -82.1834 -82.1755 -82.1658 -82.1655 -82.0998
   -82.0984 -45.8400 -45.8298 -45.7078 -45.6899 -45.6720 -45.6696 -45.6679
   -45.6599 -45.6522 -45.6425 -45.6407 -45.6280 -45.6273 -45.6256 -45.6188
   -45.6109 -45.6086 -45.6081 -45.6060 -45.6013 -45.5993 -45.5504 -45.5498
   -45.5354 -45.5340 -45.5254 -45.5239   3.5084   3.7063   3.8570   3.9241
     4.0416   4.1108   4.1840   4.2523   4.3269   4.3479   4.4972   4.5787
     4.6066   4.7239   4.8317   4.9225   5.0932   5.0988   5.1434   5.1735
     5.2161   5.2687   5.3894   5.4558   5.5048   5.5895   5.6393   5.6968
     5.7676   5.7918   5.8130   5.8619   5.8943   5.9085   5.9673   5.9718
     5.9838   5.9982   6.0681   6.1410   6.1776   6.2202   6.2541   6.3061
     6.4243   6.6320   6.7744   6.8609   6.8749   7.3580   8.1142   9.1260
    10.2384  11.4641  12.2811  14.3112  15.1488  15.2095  16.7632  16.9269
    18.7728  18.8598  19.0153  19.0674  19.3386  19.7797  20.3357

     occupation numbers 
     1.0000   1.0000   1.0000   1.0000   1.0000   1.0000   1.0000   1.0000
     1.0000   1.0000   1.0000   1.0000   1.0000   1.0000   1.0000   1.0000
     1.0000   1.0000   1.0000   1.0000   1.0000   1.0000   1.0000   1.0000
     1.0000   1.0000   1.0000   1.0000   1.0000   1.0000   1.0000   1.0000
     1.0000   1.0000   1.0000   1.0000   1.0000   1.0000   1.0000   1.0000
     1.0000   1.0000   1.0000   1.0000   1.0000   1.0000   1.0000   1.0000
     1.0000   1.0000   1.0000   1.0000   1.0000   1.0000   1.0000   1.0000
     1.0000   1.0000   1.0000   1.0000   1.0000   1.0000   1.0000   1.0000
     1.0000   1.0000   1.0000   1.0000   1.0000   1.0000   1.0000   1.0000
     1.0000   1.0000   1.0000   1.0000   1.0000   1.0000   1.0000   1.0000
     1.0000   1.0000   1.0000   1.0000   1.0000   1.0000   1.0000   1.0000
     0.0000   0.0000   0.0000   0.0000   0.0000   0.0000   0.0000   0.0000
     0.0000   0.0000   0.0000   0.0000   0.0000   0.0000   0.0000

          k = 0.5000-0.2887 0.0000 (  4440 PWs)   bands (ev):

   -82.2455 -82.2448 -82.1794 -82.1788 -82.1716 -82.1612 -82.1609 -82.0958
   -82.0944 -45.8293 -45.8220 -45.7677 -45.7557 -45.7167 -45.7165 -45.6964
   -45.6959 -45.6947 -45.6663 -45.6654 -45.6460 -45.6414 -45.6380 -45.6234
   -45.6230 -45.6097 -45.6090 -45.6043 -45.6034 -45.5862 -45.5774 -45.5762
   -45.5688 -45.5681 -45.5151 -45.5138   3.5417   3.6005   3.7097   3.7775
     3.8310   3.8853   3.9163   3.9982   4.0151   4.0436   4.0439   4.0725
     4.2337   4.3653   4.5741   4.5986   4.7136   4.8039   5.0992   5.1293
     5.6234   5.6437   5.6542   5.7417   5.8864   5.9841   6.1032   6.1240
     6.1718   6.4102   6.4109   6.5591   6.5980   6.6942   6.7457   6.7539
     6.7589   6.7709   6.8031   6.8254   6.8704   6.8732   6.9352   6.9369
     7.1194   9.6790   9.8598  10.3433  10.3950  10.4011  10.6893  10.6893
    11.9105  12.0714  12.5324  12.7046  13.9746  13.9948  15.3973  15.7666
    15.7853  16.3838  16.5791  17.2778  18.4688  18.5327  18.6789

     occupation numbers 
     1.0000   1.0000   1.0000   1.0000   1.0000   1.0000   1.0000   1.0000
     1.0000   1.0000   1.0000   1.0000   1.0000   1.0000   1.0000   1.0000
     1.0000   1.0000   1.0000   1.0000   1.0000   1.0000   1.0000   1.0000
     1.0000   1.0000   1.0000   1.0000   1.0000   1.0000   1.0000   1.0000
     1.0000   1.0000   1.0000   1.0000   1.0000   1.0000   1.0000   1.0000
     1.0000   1.0000   1.0000   1.0000   1.0000   1.0000   1.0000   1.0000
     1.0000   1.0000   1.0000   1.0000   1.0000   1.0000   1.0000   1.0000
     1.0000   1.0000   1.0000   1.0000   1.0000   1.0000   1.0000   1.0000
     1.0000   1.0000   1.0000   1.0000   1.0000   1.0000   1.0000   1.0000
     1.0000   1.0000   1.0000   1.0000   1.0000   1.0000   1.0000   1.0000
     1.0000   0.3024   0.0000   0.0000   0.0000   0.0000   0.0000   0.0000
     0.0000   0.0000   0.0000   0.0000   0.0000   0.0000   0.0000   0.0000
     0.0000   0.0000   0.0000   0.0000   0.0000   0.0000   0.0000

          k =-0.5000-0.2887 0.0000 (  4440 PWs)   bands (ev):

   -82.2456 -82.2448 -82.1796 -82.1791 -82.1713 -82.1614 -82.1611 -82.0955
   -82.0941 -45.8364 -45.8285 -45.7436 -45.7346 -45.6953 -45.6949 -45.6886
   -45.6828 -45.6787 -45.6761 -45.6718 -45.6531 -45.6502 -45.6417 -45.6360
   -45.6270 -45.6196 -45.6190 -45.6124 -45.6047 -45.5995 -45.5821 -45.5808
   -45.5486 -45.5481 -45.5377 -45.5363   3.5730   3.5880   3.6584   3.7297
     3.7346   3.8058   3.8306   3.9325   3.9599   3.9884   4.0892   4.0920
     4.3246   4.4121   4.5149   4.9221   4.9677   5.0644   5.1932   5.2881
     5.2929   5.4177   5.5368   5.6392   5.8412   5.9095   5.9627   6.1219
     6.2365   6.4192   6.4361   6.6138   6.6901   6.7379   6.7573   6.7700
     6.7813   6.8099   6.8152   6.8527   6.8678   6.8806   6.9331   6.9396
     7.0553   9.3442   9.6151   9.9044  10.7524  11.1558  11.3175  11.9353
    12.1343  12.2272  12.4968  12.6651  12.8782  14.0525  14.2285  14.8774
    15.0198  15.5283  15.6497  15.9035  18.6062  18.7445  19.2310

     occupation numbers 
     1.0000   1.0000   1.0000   1.0000   1.0000   1.0000   1.0000   1.0000
     1.0000   1.0000   1.0000   1.0000   1.0000   1.0000   1.0000   1.0000
     1.0000   1.0000   1.0000   1.0000   1.0000   1.0000   1.0000   1.0000
     1.0000   1.0000   1.0000   1.0000   1.0000   1.0000   1.0000   1.0000
     1.0000   1.0000   1.0000   1.0000   1.0000   1.0000   1.0000   1.0000
     1.0000   1.0000   1.0000   1.0000   1.0000   1.0000   1.0000   1.0000
     1.0000   1.0000   1.0000   1.0000   1.0000   1.0000   1.0000   1.0000
     1.0000   1.0000   1.0000   1.0000   1.0000   1.0000   1.0000   1.0000
     1.0000   1.0000   1.0000   1.0000   1.0000   1.0000   1.0000   1.0000
     1.0000   1.0000   1.0000   1.0000   1.0000   1.0000   1.0000   1.0000
     1.0000   1.0000   0.9550   0.0000   0.0000   0.0000   0.0000   0.0000
     0.0000   0.0000   0.0000   0.0000   0.0000   0.0000   0.0000   0.0000
     0.0000   0.0000   0.0000   0.0000   0.0000   0.0000   0.0000

          k =-0.2500 0.4330 0.0000 (  4451 PWs)   bands (ev):

   -82.2455 -82.2447 -82.1794 -82.1788 -82.1716 -82.1612 -82.1609 -82.0958
   -82.0944 -45.8320 -45.8245 -45.7494 -45.7374 -45.7019 -45.7014 -45.6956
   -45.6829 -45.6791 -45.6784 -45.6666 -45.6466 -45.6418 -45.6404 -45.6342
   -45.6327 -45.6214 -45.6183 -45.6051 -45.6021 -45.6004 -45.5773 -45.5761
   -45.5622 -45.5613 -45.5294 -45.5280   3.8386   3.8839   3.9914   4.0429
     4.1726   4.2364   4.3680   4.4117   4.5351   4.5782   4.5933   4.6277
     4.6676   4.6777   4.7704   4.8056   4.8662   4.9754   5.0626   5.1333
     5.1508   5.3304   5.3348   5.3929   5.4758   5.5189   5.5567   5.6288
     5.6532   5.6795   5.7952   5.8912   6.0117   6.0317   6.1173   6.1443
     6.2264   6.3010   6.5180   6.6175   6.6491   6.7378   6.7870   6.9771
     7.0706   9.1362   9.3028   9.5948   9.9776  10.6426  11.4943  12.3173
    13.4407  14.5535  15.0699  15.1572  15.5944  15.7164  15.8688  16.0906
    16.3374  16.7680  16.9983  17.0153  17.2505  17.6301  17.8383

     occupation numbers 
     1.0000   1.0000   1.0000   1.0000   1.0000   1.0000   1.0000   1.0000
     1.0000   1.0000   1.0000   1.0000   1.0000   1.0000   1.0000   1.0000
     1.0000   1.0000   1.0000   1.0000   1.0000   1.0000   1.0000   1.0000
     1.0000   1.0000   1.0000   1.0000   1.0000   1.0000   1.0000   1.0000
     1.0000   1.0000   1.0000   1.0000   1.0000   1.0000   1.0000   1.0000
     1.0000   1.0000   1.0000   1.0000   1.0000   1.0000   1.0000   1.0000
     1.0000   1.0000   1.0000   1.0000   1.0000   1.0000   1.0000   1.0000
     1.0000   1.0000   1.0000   1.0000   1.0000   1.0000   1.0000   1.0000
     1.0000   1.0000   1.0000   1.0000   1.0000   1.0000   1.0000   1.0000
     1.0000   1.0000   1.0000   1.0000   1.0000   1.0000   1.0000   1.0000
     1.0000   1.0000   1.0000   0.9918   0.0000   0.0000   0.0000   0.0000
     0.0000   0.0000   0.0000   0.0000   0.0000   0.0000   0.0000   0.0000
     0.0000   0.0000   0.0000   0.0000   0.0000   0.0000   0.0000

          k = 0.5000 0.0000 0.0000 (  4451 PWs)   bands (ev):

   -82.2456 -82.2448 -82.1795 -82.1789 -82.1714 -82.1613 -82.1610 -82.0957
   -82.0942 -45.8308 -45.8257 -45.7412 -45.7300 -45.6950 -45.6900 -45.6897
   -45.6884 -45.6736 -45.6711 -45.6689 -45.6505 -45.6492 -45.6466 -45.6331
   -45.6303 -45.6279 -45.6231 -45.6142 -45.6079 -45.6075 -45.5696 -45.5685
   -45.5570 -45.5563 -45.5403 -45.5389   3.8911   3.9352   4.0124   4.0710
     4.3090   4.3634   4.3729   4.4314   4.4840   4.5110   4.5672   4.5878
     4.6274   4.6633   4.6730   4.7698   4.8601   4.9826   5.0317   5.0395
     5.1638   5.2436   5.2940   5.3606   5.4372   5.4939   5.5045   5.6067
     5.6684   5.7414   5.8101   5.8502   5.9859   6.1065   6.1364   6.1804
     6.2652   6.2823   6.4319   6.6290   6.7713   6.8178   6.8462   6.9895
     7.0575   9.1893   9.3574   9.6248  10.0069  10.6229  11.4227  12.2966
    13.3742  14.4981  15.3075  15.3521  15.4869  15.6582  15.7600  15.9852
    16.0923  16.5235  16.8759  17.0522  17.2317  17.5220  17.8056

     occupation numbers 
     1.0000   1.0000   1.0000   1.0000   1.0000   1.0000   1.0000   1.0000
     1.0000   1.0000   1.0000   1.0000   1.0000   1.0000   1.0000   1.0000
     1.0000   1.0000   1.0000   1.0000   1.0000   1.0000   1.0000   1.0000
     1.0000   1.0000   1.0000   1.0000   1.0000   1.0000   1.0000   1.0000
     1.0000   1.0000   1.0000   1.0000   1.0000   1.0000   1.0000   1.0000
     1.0000   1.0000   1.0000   1.0000   1.0000   1.0000   1.0000   1.0000
     1.0000   1.0000   1.0000   1.0000   1.0000   1.0000   1.0000   1.0000
     1.0000   1.0000   1.0000   1.0000   1.0000   1.0000   1.0000   1.0000
     1.0000   1.0000   1.0000   1.0000   1.0000   1.0000   1.0000   1.0000
     1.0000   1.0000   1.0000   1.0000   1.0000   1.0000   1.0000   1.0000
     1.0000   1.0000   1.0000   0.9131   0.0000   0.0000   0.0000   0.0000
     0.0000   0.0000   0.0000   0.0000   0.0000   0.0000   0.0000   0.0000
     0.0000   0.0000   0.0000   0.0000   0.0000   0.0000   0.0000

     the Fermi energy is     9.6640 ev

!    total energy              =   -2660.35590520 Ry
     estimated scf accuracy    <       0.00000094 Ry
     smearing contrib. (-TS)   =      -0.00025382 Ry
     internal energy E=F+TS    =   -2660.35565138 Ry

     The total energy is F=E-TS. E is the sum of the following terms:
     one-electron contribution =  -15141.87088081 Ry
     hartree contribution      =    7611.35922087 Ry
     xc contribution           =    -260.72113377 Ry
     ewald contribution        =    5130.87714233 Ry

     convergence has been achieved in  18 iterations

     negative rho (up, down):  6.330E-04 0.000E+00

     Forces acting on atoms (cartesian axes, Ry/au):

     atom    1 type  1   force =    -0.01676505   -0.01267530   -0.04373108
     atom    2 type  1   force =    -0.01751649   -0.01319354   -0.04019648
     atom    3 type  1   force =    -0.00521610    0.00232237    0.00871276
     atom    4 type  1   force =     0.00522895   -0.00232923   -0.00773512
     atom    5 type  1   force =     0.01751440    0.01319359    0.03991266
     atom    6 type  1   force =     0.01676659    0.01268750    0.04339871
     atom    7 type  1   force =    -0.00060602    0.00043510    0.00546624
     atom    8 type  1   force =     0.00000373    0.00000567   -0.00039211
     atom    9 type  1   force =     0.00059000   -0.00044616   -0.00543557
     The non-local contrib.  to forces
     atom    1 type  1   force =     0.00040622    0.00063872    0.03900187
     atom    2 type  1   force =     0.00109698   -0.00369994   -0.01531874
     atom    3 type  1   force =     0.00189703    0.00033072    0.11870038
     atom    4 type  1   force =    -0.00190366   -0.00032320   -0.11817975
     atom    5 type  1   force =    -0.00111229    0.00370070    0.01476947
     atom    6 type  1   force =    -0.00040591   -0.00063533   -0.03939290
     atom    7 type  1   force =    -0.00205642    0.00163966   -0.09549109
     atom    8 type  1   force =    -0.00000332    0.00000648   -0.00043187
     atom    9 type  1   force =     0.00204945   -0.00165389    0.09545055
     The ionic contribution  to forces
     atom    1 type  1   force =    -1.49298960   -1.03259724 -216.16984874
     atom    2 type  1   force =    -1.49298959   -1.03259722  105.43565259
     atom    3 type  1   force =    -0.46724478    0.17444347  427.81538914
     atom    4 type  1   force =     0.46725904   -0.17445669 -427.81560187
     atom    5 type  1   force =     1.49300385    1.03258398 -105.43586526
     atom    6 type  1   force =     1.49300386    1.03258400  216.16963606
     atom    7 type  1   force =    -0.00130057    0.00048415 -321.60261257
     atom    8 type  1   force =    -0.00001425    0.00001324    0.00021267
     atom    9 type  1   force =     0.00127205   -0.00045769  321.60303798
     The local contribution  to forces
     atom    1 type  1   force =     1.47577310    1.01924190  216.08979783
     atom    2 type  1   force =     1.47426966    1.02301521 -105.45970674
     atom    3 type  1   force =     0.46015080   -0.17243250 -427.93030755
     atom    4 type  1   force =    -0.46017523    0.17244911  427.92484201
     atom    5 type  1   force =    -1.47427787   -1.02299691  105.46336331
     atom    6 type  1   force =    -1.47577719   -1.01922664 -216.08714413
     atom    7 type  1   force =     0.00265454   -0.00163523  321.70538099
     atom    8 type  1   force =    -0.00000100   -0.00000918    0.00398322
     atom    9 type  1   force =    -0.00262623    0.00160981 -321.70553349
     The core correction contribution to forces
     atom    1 type  1   force =     0.00008893    0.00006366   -0.00023105
     atom    2 type  1   force =     0.00003732    0.00001603   -0.00001934
     atom    3 type  1   force =    -0.00001554    0.00001000   -0.00092507
     atom    4 type  1   force =     0.00001610   -0.00001090    0.00092516
     atom    5 type  1   force =    -0.00003681   -0.00001704    0.00001834
     atom    6 type  1   force =    -0.00008844   -0.00006448    0.00023019
     atom    7 type  1   force =    -0.00000191    0.00000492    0.00045770
     atom    8 type  1   force =     0.00000059    0.00000040    0.00000125
     atom    9 type  1   force =     0.00000307   -0.00000418   -0.00045551
     The Hubbard contrib.    to forces
     atom    1 type  1   force =     0.00000000    0.00000000    0.00000000
     atom    2 type  1   force =     0.00000000    0.00000000    0.00000000
     atom    3 type  1   force =     0.00000000    0.00000000    0.00000000
     atom    4 type  1   force =     0.00000000    0.00000000    0.00000000
     atom    5 type  1   force =     0.00000000    0.00000000    0.00000000
     atom    6 type  1   force =     0.00000000    0.00000000    0.00000000
     atom    7 type  1   force =     0.00000000    0.00000000    0.00000000
     atom    8 type  1   force =     0.00000000    0.00000000    0.00000000
     atom    9 type  1   force =     0.00000000    0.00000000    0.00000000
     The SCF correction term to forces
     atom    1 type  1   force =    -0.00004508   -0.00002082   -0.00251290
     atom    2 type  1   force =     0.00006775    0.00007389   -0.00086615
     atom    3 type  1   force =    -0.00000500   -0.00002781    0.00579395
     atom    4 type  1   force =     0.00003130    0.00001396    0.00021743
     atom    5 type  1   force =    -0.00006386   -0.00007562   -0.00243510
     atom    6 type  1   force =     0.00003290    0.00003146    0.00000759
     atom    7 type  1   force =     0.00009695   -0.00005689   -0.00233069
     atom    8 type  1   force =     0.00002033   -0.00000375   -0.00421928
     atom    9 type  1   force =    -0.00010973    0.00006131    0.00200299

     Total force =     0.095457     Total SCF correction =     0.008597


     Computing stress (Cartesian axis) and pressure


     negative rho (up, down):  6.330E-04 0.000E+00
          total   stress  (Ry/bohr**3)                   (kbar)     P=      -48.95
  -0.00047512  -0.00001582  -0.00001638          -69.89       -2.33       -2.41
  -0.00001582  -0.00040601   0.00011431           -2.33      -59.73       16.82
  -0.00001638   0.00011431  -0.00011723           -2.41       16.82      -17.25

     kinetic stress (kbar)  37027.76     23.47      1.40
                               23.47  37013.97    -14.40
                                1.40    -14.40  37049.14

     local   stress (kbar)**********   2251.72    495.57
                             2251.72**********  -2239.11
                              495.57  -2239.111282519.31

     nonloc. stress (kbar)   4357.84      4.42      1.25
                                4.42   4356.95     -5.19
                                1.25     -5.19   4318.99

     hartree stress (kbar) 657373.28   -878.19   -189.61
                             -878.19 658465.84    830.57
                             -189.61    830.57-615761.58

     exc-cor stress (kbar)  -6675.27     -0.71     -0.25
                               -0.71  -6674.19      1.17
                               -0.25      1.17  -6674.96

     corecor stress (kbar)   -902.38     -0.03     -0.01
                               -0.03   -902.37      0.02
                               -0.01      0.02   -902.17

     ewald   stress (kbar) 585386.91  -1403.01   -310.76
                            -1403.01 587106.85   1443.75
                             -310.76   1443.75-700565.98

     hubbard stress (kbar)      0.00      0.00      0.00
                                0.00      0.00      0.00
                                0.00      0.00      0.00

     DFT-D   stress (kbar)      0.00      0.00      0.00
                                0.00      0.00      0.00
                                0.00      0.00      0.00

     XDM     stress (kbar)      0.00      0.00      0.00
                                0.00      0.00      0.00
                                0.00      0.00      0.00

     dft-nl  stress (kbar)      0.00      0.00      0.00
                                0.00      0.00      0.00
                                0.00      0.00      0.00

     TS-vdW  stress (kbar)      0.00      0.00      0.00
                                0.00      0.00      0.00
                                0.00      0.00      0.00



     BFGS Geometry Optimization
     Energy error            =      0.0E+00
     Gradient error          =      4.4E-02

     number of scf cycles    =   1
     number of bfgs steps    =   0

     energy   new            =   -2660.3559051965 Ry

     new trust radius        =       0.0485194553 bohr
     new conv_thr            =       0.0000010000 Ry


ATOMIC_POSITIONS (angstrom)
Ag            0.9717773183        1.9545935221        4.7810475079
Ag            0.9713796711        1.9543192772       11.9891979379
Ag            0.9778887589        1.9625299444       19.2213595919
Ag            0.0027670395       -0.0012325745       -0.0040932489
Ag            0.0092682191        0.0069817483        7.2274008714
Ag            0.0088724968        0.0067139380       14.4355256088
Ag            1.9609803088        0.9808792428        2.4049836096
Ag            1.9613029739        0.9806520006        9.6081635027
Ag            1.9616132135        0.9804129011       16.8117746188



     Writing output data file ./surface.save/
     NEW-OLD atomic charge density approx. for the potential

     negative rho (up, down):  6.260E-04 0.000E+00

     total cpu time spent up to now is       20.7 secs

     Self-consistent Calculation

     iteration #  1     ecut=    30.00 Ry     beta= 0.30
     Davidson diagonalization with overlap
     ethr =  1.00E-06,  avg # of iterations =  6.8

     negative rho (up, down):  6.242E-04 0.000E+00

     total cpu time spent up to now is       23.1 secs

     total energy              =   -2660.34784522 Ry
     estimated scf accuracy    <       0.03299975 Ry

     iteration #  2     ecut=    30.00 Ry     beta= 0.30
     Davidson diagonalization with overlap
     ethr =  1.93E-05,  avg # of iterations =  7.6

     negative rho (up, down):  6.281E-04 0.000E+00

     total cpu time spent up to now is       24.7 secs

     total energy              =   -2660.28108236 Ry
     estimated scf accuracy    <       4.69493964 Ry

     iteration #  3     ecut=    30.00 Ry     beta= 0.30
     Davidson diagonalization with overlap
     ethr =  1.93E-05,  avg # of iterations =  9.0

     negative rho (up, down):  6.300E-04 0.000E+00

     total cpu time spent up to now is       26.4 secs

     total energy              =   -2660.35396864 Ry
     estimated scf accuracy    <       0.50677080 Ry

     iteration #  4     ecut=    30.00 Ry     beta= 0.30
     Davidson diagonalization with overlap
     ethr =  1.93E-05,  avg # of iterations =  6.7

     negative rho (up, down):  6.314E-04 0.000E+00

     total cpu time spent up to now is       27.7 secs

     total energy              =   -2660.35954028 Ry
     estimated scf accuracy    <       0.31328579 Ry

     iteration #  5     ecut=    30.00 Ry     beta= 0.30
     Davidson diagonalization with overlap
     ethr =  1.93E-05,  avg # of iterations =  3.3

     negative rho (up, down):  6.317E-04 0.000E+00

     total cpu time spent up to now is       28.7 secs

     total energy              =   -2660.36327750 Ry
     estimated scf accuracy    <       0.00154744 Ry

     iteration #  6     ecut=    30.00 Ry     beta= 0.30
     Davidson diagonalization with overlap
     ethr =  9.05E-07,  avg # of iterations =  3.9

     negative rho (up, down):  6.311E-04 0.000E+00

     total cpu time spent up to now is       29.8 secs

     total energy              =   -2660.36333708 Ry
     estimated scf accuracy    <       0.00223327 Ry

     iteration #  7     ecut=    30.00 Ry     beta= 0.30
     Davidson diagonalization with overlap
     ethr =  9.05E-07,  avg # of iterations =  1.7

     negative rho (up, down):  6.308E-04 0.000E+00

     total cpu time spent up to now is       30.7 secs

     total energy              =   -2660.36339437 Ry
     estimated scf accuracy    <       0.00006226 Ry

     iteration #  8     ecut=    30.00 Ry     beta= 0.30
     Davidson diagonalization with overlap
     ethr =  3.64E-08,  avg # of iterations =  1.0

     negative rho (up, down):  6.309E-04 0.000E+00

     total cpu time spent up to now is       31.5 secs

     total energy              =   -2660.36339923 Ry
     estimated scf accuracy    <       0.00010712 Ry

     iteration #  9     ecut=    30.00 Ry     beta= 0.30
     Davidson diagonalization with overlap
     ethr =  3.64E-08,  avg # of iterations =  1.0

     negative rho (up, down):  6.310E-04 0.000E+00

     total cpu time spent up to now is       32.3 secs

     total energy              =   -2660.36340167 Ry
     estimated scf accuracy    <       0.00001301 Ry

     iteration # 10     ecut=    30.00 Ry     beta= 0.30
     Davidson diagonalization with overlap
     ethr =  7.61E-09,  avg # of iterations =  1.0

     negative rho (up, down):  6.311E-04 0.000E+00

     total cpu time spent up to now is       33.1 secs

     total energy              =   -2660.36340226 Ry
     estimated scf accuracy    <       0.00001175 Ry

     iteration # 11     ecut=    30.00 Ry     beta= 0.30
     Davidson diagonalization with overlap
     ethr =  6.87E-09,  avg # of iterations =  1.0

     negative rho (up, down):  6.315E-04 0.000E+00

     total cpu time spent up to now is       34.0 secs

     End of self-consistent calculation

          k = 0.0000 0.0000 0.0000 (  4413 PWs)   bands (ev):

   -82.2447 -82.2438 -82.1827 -82.1822 -82.1799 -82.1650 -82.1647 -82.1030
   -82.1026 -45.8202 -45.8026 -45.6999 -45.6677 -45.6545 -45.6515 -45.6485
   -45.6338 -45.6272 -45.6144 -45.6109 -45.6038 -45.6024 -45.5936 -45.5932
   -45.5891 -45.5886 -45.5884 -45.5785 -45.5775 -45.5575 -45.5501 -45.5497
   -45.5120 -45.5116 -45.4851 -45.4848   2.3780   2.6452   2.9681   3.3861
     3.5757   3.7367   3.7432   3.7711   3.8496   4.3783   4.4587   4.6777
     4.7936   5.0395   5.0900   5.1152   5.1286   5.1764   5.2033   5.2088
     5.2365   5.2545   5.2635   5.2685   5.2918   5.2938   5.3166   5.3351
     5.3362   5.4944   5.5099   5.5484   5.5959   5.6573   5.7784   5.9493
     6.0635   6.1258   6.1927   6.2125   6.2198   6.2315   6.2380   6.3139
     6.3464   6.3521   6.4130   6.4888   6.7390   6.8470   6.8929   7.2263
     8.3026   9.4763   9.7843  13.2827  13.9110  13.9664  15.5196  15.6502
    17.6355  17.8623  20.0104  20.4206  22.6831  23.1242  25.1939

     occupation numbers 
     1.0000   1.0000   1.0000   1.0000   1.0000   1.0000   1.0000   1.0000
     1.0000   1.0000   1.0000   1.0000   1.0000   1.0000   1.0000   1.0000
     1.0000   1.0000   1.0000   1.0000   1.0000   1.0000   1.0000   1.0000
     1.0000   1.0000   1.0000   1.0000   1.0000   1.0000   1.0000   1.0000
     1.0000   1.0000   1.0000   1.0000   1.0000   1.0000   1.0000   1.0000
     1.0000   1.0000   1.0000   1.0000   1.0000   1.0000   1.0000   1.0000
     1.0000   1.0000   1.0000   1.0000   1.0000   1.0000   1.0000   1.0000
     1.0000   1.0000   1.0000   1.0000   1.0000   1.0000   1.0000   1.0000
     1.0000   1.0000   1.0000   1.0000   1.0000   1.0000   1.0000   1.0000
     1.0000   1.0000   1.0000   1.0000   1.0000   1.0000   1.0000   1.0000
     1.0000   1.0000   1.0000   1.0000   1.0000   1.0000   1.0000   1.0000
     1.0000   1.0000   0.0000   0.0000   0.0000   0.0000   0.0000   0.0000
     0.0000   0.0000   0.0000   0.0000   0.0000   0.0000   0.0000

          k = 0.0000 0.2887 0.0000 (  4418 PWs)   bands (ev):

   -82.2401 -82.2393 -82.1781 -82.1777 -82.1759 -82.1605 -82.1602 -82.0988
   -82.0985 -45.8104 -45.7982 -45.7108 -45.6947 -45.6809 -45.6704 -45.6615
   -45.6545 -45.6463 -45.6453 -45.6384 -45.6323 -45.6271 -45.6225 -45.6128
   -45.6117 -45.6010 -45.6006 -45.5929 -45.5918 -45.5765 -45.5572 -45.5568
   -45.5446 -45.5441 -45.5026 -45.5021   3.5979   3.7700   3.9671   4.0687
     4.1597   4.2152   4.2364   4.3211   4.3806   4.4523   4.4689   4.5118
     4.5915   4.5927   4.6746   4.7225   4.8101   4.8510   5.0600   5.1754
     5.2330   5.3118   5.4172   5.5108   5.5908   5.6538   5.8214   5.8293
     5.8620   5.8984   5.9116   5.9239   5.9524   5.9607   5.9802   5.9871
     6.0015   6.0316   6.0747   6.0967   6.1200   6.1669   6.2086   6.2916
     6.3472   6.3631   6.4662   6.5168   6.8095   7.4679   8.3356   9.2264
    10.4082  11.6363  12.5013  14.3366  15.1635  15.2451  16.7927  16.9631
    18.7550  18.8978  18.9995  19.1526  19.3391  19.8939  20.5209

     occupation numbers 
     1.0000   1.0000   1.0000   1.0000   1.0000   1.0000   1.0000   1.0000
     1.0000   1.0000   1.0000   1.0000   1.0000   1.0000   1.0000   1.0000
     1.0000   1.0000   1.0000   1.0000   1.0000   1.0000   1.0000   1.0000
     1.0000   1.0000   1.0000   1.0000   1.0000   1.0000   1.0000   1.0000
     1.0000   1.0000   1.0000   1.0000   1.0000   1.0000   1.0000   1.0000
     1.0000   1.0000   1.0000   1.0000   1.0000   1.0000   1.0000   1.0000
     1.0000   1.0000   1.0000   1.0000   1.0000   1.0000   1.0000   1.0000
     1.0000   1.0000   1.0000   1.0000   1.0000   1.0000   1.0000   1.0000
     1.0000   1.0000   1.0000   1.0000   1.0000   1.0000   1.0000   1.0000
     1.0000   1.0000   1.0000   1.0000   1.0000   1.0000   1.0000   1.0000
     1.0000   1.0000   1.0000   1.0000   1.0000   1.0000   1.0000   1.0000
     0.0000   0.0000   0.0000   0.0000   0.0000   0.0000   0.0000   0.0000
     0.0000   0.0000   0.0000   0.0000   0.0000   0.0000   0.0000

          k = 0.0000-0.5774 0.0000 (  4440 PWs)   bands (ev):

   -82.2355 -82.2348 -82.1736 -82.1732 -82.1719 -82.1560 -82.1557 -82.0946
   -82.0943 -45.8096 -45.7980 -45.7475 -45.7373 -45.7079 -45.7067 -45.6987
   -45.6843 -45.6835 -45.6662 -45.6612 -45.6467 -45.6448 -45.6412 -45.6210
   -45.6203 -45.6073 -45.6060 -45.6003 -45.5994 -45.5898 -45.5813 -45.5809
   -45.5610 -45.5607 -45.5154 -45.5151   3.5795   3.6076   3.7430   3.7870
     3.8016   3.9320   3.9560   3.9968   4.0207   4.0845   4.1144   4.1321
     4.3208   4.3492   4.4016   4.4573   4.6446   4.6676   5.2657   5.2765
     5.5998   5.6426   5.8237   5.8324   5.8938   6.0465   6.0736   6.1211
     6.1492   6.2816   6.3694   6.4629   6.6225   6.6831   6.7388   6.7674
     6.7772   6.7801   6.8167   6.8242   6.8419   6.8515   6.9371   6.9834
     7.1147   9.5870   9.8814  10.3044  10.4318  10.6057  10.8882  10.8963
    11.2847  11.4060  12.9935  13.3027  13.8833  14.0206  14.9187  15.4948
    16.1056  16.4023  16.9133  17.8370  18.0620  18.4606  18.6543

     occupation numbers 
     1.0000   1.0000   1.0000   1.0000   1.0000   1.0000   1.0000   1.0000
     1.0000   1.0000   1.0000   1.0000   1.0000   1.0000   1.0000   1.0000
     1.0000   1.0000   1.0000   1.0000   1.0000   1.0000   1.0000   1.0000
     1.0000   1.0000   1.0000   1.0000   1.0000   1.0000   1.0000   1.0000
     1.0000   1.0000   1.0000   1.0000   1.0000   1.0000   1.0000   1.0000
     1.0000   1.0000   1.0000   1.0000   1.0000   1.0000   1.0000   1.0000
     1.0000   1.0000   1.0000   1.0000   1.0000   1.0000   1.0000   1.0000
     1.0000   1.0000   1.0000   1.0000   1.0000   1.0000   1.0000   1.0000
     1.0000   1.0000   1.0000   1.0000   1.0000   1.0000   1.0000   1.0000
     1.0000   1.0000   1.0000   1.0000   1.0000   1.0000   1.0000   1.0000
     1.0000   0.9975   0.0000   0.0000   0.0000   0.0000   0.0000   0.0000
     0.0000   0.0000   0.0000   0.0000   0.0000   0.0000   0.0000   0.0000
     0.0000   0.0000   0.0000   0.0000   0.0000   0.0000   0.0000

          k = 0.2500 0.4330 0.0000 (  4451 PWs)   bands (ev):

   -82.2356 -82.2349 -82.1738 -82.1734 -82.1716 -82.1560 -82.1557 -82.0945
   -82.0941 -45.8053 -45.7966 -45.7211 -45.7117 -45.7068 -45.6922 -45.6784
   -45.6780 -45.6665 -45.6642 -45.6552 -45.6539 -45.6484 -45.6441 -45.6397
   -45.6385 -45.6234 -45.6199 -45.6143 -45.6044 -45.6035 -45.5669 -45.5664
   -45.5539 -45.5534 -45.5405 -45.5400   3.9902   4.0031   4.0443   4.0787
     4.2725   4.3151   4.3545   4.4044   4.4915   4.5308   4.5834   4.6251
     4.6423   4.6596   4.7387   4.7410   4.9064   4.9469   5.0020   5.0433
     5.1611   5.2260   5.2855   5.3877   5.4133   5.4960   5.5402   5.6272
     5.6904   5.7517   5.7772   5.8617   6.0328   6.1122   6.1354   6.1803
     6.2044   6.2986   6.4386   6.6157   6.7471   6.7659   6.8918   7.0078
     7.0575   9.1895   9.3584   9.6066  10.0409  10.6315  11.3863  12.3555
    13.3701  14.4783  15.2358  15.3227  15.5701  15.6366  15.8202  16.0211
    16.1752  16.4192  16.8597  16.9969  17.2542  17.5300  17.7900

     occupation numbers 
     1.0000   1.0000   1.0000   1.0000   1.0000   1.0000   1.0000   1.0000
     1.0000   1.0000   1.0000   1.0000   1.0000   1.0000   1.0000   1.0000
     1.0000   1.0000   1.0000   1.0000   1.0000   1.0000   1.0000   1.0000
     1.0000   1.0000   1.0000   1.0000   1.0000   1.0000   1.0000   1.0000
     1.0000   1.0000   1.0000   1.0000   1.0000   1.0000   1.0000   1.0000
     1.0000   1.0000   1.0000   1.0000   1.0000   1.0000   1.0000   1.0000
     1.0000   1.0000   1.0000   1.0000   1.0000   1.0000   1.0000   1.0000
     1.0000   1.0000   1.0000   1.0000   1.0000   1.0000   1.0000   1.0000
     1.0000   1.0000   1.0000   1.0000   1.0000   1.0000   1.0000   1.0000
     1.0000   1.0000   1.0000   1.0000   1.0000   1.0000   1.0000   1.0000
     1.0000   1.0000   1.0000   0.9834   0.0000   0.0000   0.0000   0.0000
     0.0000   0.0000   0.0000   0.0000   0.0000   0.0000   0.0000   0.0000
     0.0000   0.0000   0.0000   0.0000   0.0000   0.0000   0.0000

          k =-0.2500 0.1443 0.0000 (  4418 PWs)   bands (ev):

   -82.2401 -82.2393 -82.1781 -82.1777 -82.1759 -82.1605 -82.1601 -82.0988
   -82.0985 -45.8081 -45.7971 -45.7190 -45.7015 -45.6755 -45.6720 -45.6616
   -45.6547 -45.6479 -45.6473 -45.6428 -45.6327 -45.6223 -45.6203 -45.6096
   -45.6086 -45.6034 -45.6030 -45.5918 -45.5912 -45.5718 -45.5577 -45.5573
   -45.5461 -45.5456 -45.4999 -45.4995   3.6299   3.7333   4.0059   4.0481
     4.1516   4.1771   4.2451   4.2552   4.3100   4.4108   4.4447   4.5446
     4.6298   4.6672   4.7795   4.8228   4.8532   4.8734   4.9910   5.0912
     5.3463   5.3744   5.4064   5.5274   5.5406   5.6780   5.7481   5.7860
     5.8278   5.8365   5.8640   5.8911   5.8964   5.9416   5.9538   5.9742
     5.9802   6.0201   6.0390   6.0936   6.1114   6.2677   6.2921   6.3122
     6.3820   6.4802   6.4916   6.5170   6.7346   7.4526   8.3726   9.1685
    10.4122  11.6538  12.5020  14.3377  15.1832  15.2235  16.8140  16.9403
    18.6985  18.8799  18.9642  19.1649  19.3300  19.9128  20.5484

     occupation numbers 
     1.0000   1.0000   1.0000   1.0000   1.0000   1.0000   1.0000   1.0000
     1.0000   1.0000   1.0000   1.0000   1.0000   1.0000   1.0000   1.0000
     1.0000   1.0000   1.0000   1.0000   1.0000   1.0000   1.0000   1.0000
     1.0000   1.0000   1.0000   1.0000   1.0000   1.0000   1.0000   1.0000
     1.0000   1.0000   1.0000   1.0000   1.0000   1.0000   1.0000   1.0000
     1.0000   1.0000   1.0000   1.0000   1.0000   1.0000   1.0000   1.0000
     1.0000   1.0000   1.0000   1.0000   1.0000   1.0000   1.0000   1.0000
     1.0000   1.0000   1.0000   1.0000   1.0000   1.0000   1.0000   1.0000
     1.0000   1.0000   1.0000   1.0000   1.0000   1.0000   1.0000   1.0000
     1.0000   1.0000   1.0000   1.0000   1.0000   1.0000   1.0000   1.0000
     1.0000   1.0000   1.0000   1.0000   1.0000   1.0000   1.0000   1.0000
     0.0000   0.0000   0.0000   0.0000   0.0000   0.0000   0.0000   0.0000
     0.0000   0.0000   0.0000   0.0000   0.0000   0.0000   0.0000

          k = 0.2500 0.1443 0.0000 (  4418 PWs)   bands (ev):

   -82.2402 -82.2394 -82.1783 -82.1778 -82.1756 -82.1606 -82.1602 -82.0986
   -82.0983 -45.8126 -45.7973 -45.7062 -45.6829 -45.6679 -45.6654 -45.6627
   -45.6599 -45.6483 -45.6383 -45.6367 -45.6243 -45.6225 -45.6216 -45.6154
   -45.6079 -45.6057 -45.6054 -45.6026 -45.5984 -45.5977 -45.5484 -45.5480
   -45.5325 -45.5320 -45.5233 -45.5228   3.5209   3.7198   3.8565   3.9362
     4.0459   4.1012   4.1987   4.2771   4.3353   4.3682   4.5093   4.6040
     4.6244   4.7336   4.8500   4.9430   5.0750   5.0934   5.1395   5.1666
     5.2209   5.2821   5.4042   5.4575   5.5094   5.6011   5.6444   5.7116
     5.7733   5.7871   5.8144   5.8707   5.8916   5.9142   5.9683   5.9727
     5.9848   5.9980   6.0651   6.1454   6.1726   6.2209   6.2493   6.2906
     6.4084   6.6557   6.7830   6.8655   6.8833   7.3583   8.0960   9.1412
    10.2377  11.4612  12.2828  14.3016  15.1454  15.2074  16.7487  16.9319
    18.7758  18.8869  19.0150  19.0395  19.3393  19.7860  20.3388

     occupation numbers 
     1.0000   1.0000   1.0000   1.0000   1.0000   1.0000   1.0000   1.0000
     1.0000   1.0000   1.0000   1.0000   1.0000   1.0000   1.0000   1.0000
     1.0000   1.0000   1.0000   1.0000   1.0000   1.0000   1.0000   1.0000
     1.0000   1.0000   1.0000   1.0000   1.0000   1.0000   1.0000   1.0000
     1.0000   1.0000   1.0000   1.0000   1.0000   1.0000   1.0000   1.0000
     1.0000   1.0000   1.0000   1.0000   1.0000   1.0000   1.0000   1.0000
     1.0000   1.0000   1.0000   1.0000   1.0000   1.0000   1.0000   1.0000
     1.0000   1.0000   1.0000   1.0000   1.0000   1.0000   1.0000   1.0000
     1.0000   1.0000   1.0000   1.0000   1.0000   1.0000   1.0000   1.0000
     1.0000   1.0000   1.0000   1.0000   1.0000   1.0000   1.0000   1.0000
     1.0000   1.0000   1.0000   1.0000   1.0000   1.0000   1.0000   1.0000
     0.0000   0.0000   0.0000   0.0000   0.0000   0.0000   0.0000   0.0000
     0.0000   0.0000   0.0000   0.0000   0.0000   0.0000   0.0000

          k = 0.5000-0.2887 0.0000 (  4440 PWs)   bands (ev):

   -82.2355 -82.2349 -82.1735 -82.1731 -82.1720 -82.1559 -82.1556 -82.0947
   -82.0943 -45.8018 -45.7891 -45.7631 -45.7495 -45.7125 -45.7122 -45.6947
   -45.6942 -45.6912 -45.6619 -45.6579 -45.6449 -45.6415 -45.6370 -45.6184
   -45.6181 -45.6064 -45.6056 -45.6005 -45.6000 -45.5840 -45.5771 -45.5768
   -45.5651 -45.5645 -45.5123 -45.5120   3.5624   3.6121   3.7351   3.7928
     3.8296   3.8846   3.9196   4.0063   4.0135   4.0363   4.0565   4.0753
     4.2642   4.3864   4.5931   4.6128   4.7854   4.7936   5.0977   5.1570
     5.6187   5.6262   5.6475   5.7616   5.8992   5.9619   6.0913   6.1311
     6.1758   6.4102   6.4371   6.5629   6.6000   6.6936   6.7443   6.7545
     6.7620   6.7750   6.8030   6.8230   6.8451   6.8811   6.9405   6.9417
     7.0870   9.6955   9.8779  10.3433  10.3948  10.4007  10.6943  10.6947
    11.8466  11.9980  12.5290  12.6945  13.9717  13.9909  15.4343  15.7988
    15.8012  16.4030  16.6027  17.2950  18.4872  18.5460  18.6815

     occupation numbers 
     1.0000   1.0000   1.0000   1.0000   1.0000   1.0000   1.0000   1.0000
     1.0000   1.0000   1.0000   1.0000   1.0000   1.0000   1.0000   1.0000
     1.0000   1.0000   1.0000   1.0000   1.0000   1.0000   1.0000   1.0000
     1.0000   1.0000   1.0000   1.0000   1.0000   1.0000   1.0000   1.0000
     1.0000   1.0000   1.0000   1.0000   1.0000   1.0000   1.0000   1.0000
     1.0000   1.0000   1.0000   1.0000   1.0000   1.0000   1.0000   1.0000
     1.0000   1.0000   1.0000   1.0000   1.0000   1.0000   1.0000   1.0000
     1.0000   1.0000   1.0000   1.0000   1.0000   1.0000   1.0000   1.0000
     1.0000   1.0000   1.0000   1.0000   1.0000   1.0000   1.0000   1.0000
     1.0000   1.0000   1.0000   1.0000   1.0000   1.0000   1.0000   1.0000
     1.0000   0.1705   0.0000   0.0000   0.0000   0.0000   0.0000   0.0000
     0.0000   0.0000   0.0000   0.0000   0.0000   0.0000   0.0000   0.0000
     0.0000   0.0000   0.0000   0.0000   0.0000   0.0000   0.0000

          k =-0.5000-0.2887 0.0000 (  4440 PWs)   bands (ev):

   -82.2357 -82.2349 -82.1739 -82.1735 -82.1714 -82.1562 -82.1558 -82.0943
   -82.0940 -45.8078 -45.7964 -45.7392 -45.7265 -45.6903 -45.6900 -45.6847
   -45.6769 -45.6748 -45.6733 -45.6715 -45.6512 -45.6499 -45.6369 -45.6326
   -45.6249 -45.6169 -45.6162 -45.6110 -45.6005 -45.5963 -45.5791 -45.5788
   -45.5467 -45.5464 -45.5356 -45.5353   3.5881   3.6040   3.6625   3.7376
     3.7493   3.8219   3.8278   3.9484   3.9488   3.9852   4.0832   4.0953
     4.3475   4.4548   4.5453   4.9325   4.9691   5.0570   5.1925   5.3037
     5.3233   5.4373   5.5330   5.6574   5.8559   5.9130   5.9502   6.0986
     6.2308   6.4006   6.4535   6.6153   6.6962   6.7365   6.7598   6.7752
     6.7786   6.8081   6.8153   6.8605   6.8698   6.8886   6.9361   6.9418
     7.0356   9.3574   9.6174   9.8755  10.7682  11.1458  11.2929  11.9328
    12.1362  12.2293  12.5173  12.6724  12.8911  14.0820  14.2521  14.9161
    14.9966  15.5161  15.6599  15.9258  18.6051  18.7425  19.2239

     occupation numbers 
     1.0000   1.0000   1.0000   1.0000   1.0000   1.0000   1.0000   1.0000
     1.0000   1.0000   1.0000   1.0000   1.0000   1.0000   1.0000   1.0000
     1.0000   1.0000   1.0000   1.0000   1.0000   1.0000   1.0000   1.0000
     1.0000   1.0000   1.0000   1.0000   1.0000   1.0000   1.0000   1.0000
     1.0000   1.0000   1.0000   1.0000   1.0000   1.0000   1.0000   1.0000
     1.0000   1.0000   1.0000   1.0000   1.0000   1.0000   1.0000   1.0000
     1.0000   1.0000   1.0000   1.0000   1.0000   1.0000   1.0000   1.0000
     1.0000   1.0000   1.0000   1.0000   1.0000   1.0000   1.0000   1.0000
     1.0000   1.0000   1.0000   1.0000   1.0000   1.0000   1.0000   1.0000
     1.0000   1.0000   1.0000   1.0000   1.0000   1.0000   1.0000   1.0000
     1.0000   1.0000   0.9603   0.0000   0.0000   0.0000   0.0000   0.0000
     0.0000   0.0000   0.0000   0.0000   0.0000   0.0000   0.0000   0.0000
     0.0000   0.0000   0.0000   0.0000   0.0000   0.0000   0.0000

          k =-0.2500 0.4330 0.0000 (  4451 PWs)   bands (ev):

   -82.2355 -82.2348 -82.1736 -82.1732 -82.1719 -82.1559 -82.1556 -82.0946
   -82.0943 -45.8041 -45.7922 -45.7449 -45.7308 -45.6984 -45.6972 -45.6916
   -45.6779 -45.6768 -45.6743 -45.6613 -45.6470 -45.6399 -45.6368 -45.6312
   -45.6299 -45.6182 -45.6150 -45.6012 -45.5984 -45.5977 -45.5770 -45.5767
   -45.5589 -45.5580 -45.5266 -45.5260   3.8637   3.9146   4.0219   4.0784
     4.1658   4.2237   4.3761   4.4389   4.5352   4.5795   4.5975   4.6345
     4.6738   4.7007   4.7750   4.8387   4.8773   4.9773   5.0763   5.1455
     5.1524   5.3320   5.3379   5.3848   5.4835   5.5227   5.5669   5.6320
     5.6591   5.6889   5.7976   5.8917   6.0020   6.0291   6.1147   6.1479
     6.2139   6.2909   6.5162   6.6225   6.6591   6.7419   6.7863   6.9527
     7.0419   9.1397   9.3058   9.5881   9.9901  10.6413  11.4732  12.3288
    13.4337  14.5456  15.0727  15.1606  15.5968  15.7149  15.8588  16.0843
    16.3322  16.7868  17.0018  17.0314  17.2584  17.6253  17.8476

     occupation numbers 
     1.0000   1.0000   1.0000   1.0000   1.0000   1.0000   1.0000   1.0000
     1.0000   1.0000   1.0000   1.0000   1.0000   1.0000   1.0000   1.0000
     1.0000   1.0000   1.0000   1.0000   1.0000   1.0000   1.0000   1.0000
     1.0000   1.0000   1.0000   1.0000   1.0000   1.0000   1.0000   1.0000
     1.0000   1.0000   1.0000   1.0000   1.0000   1.0000   1.0000   1.0000
     1.0000   1.0000   1.0000   1.0000   1.0000   1.0000   1.0000   1.0000
     1.0000   1.0000   1.0000   1.0000   1.0000   1.0000   1.0000   1.0000
     1.0000   1.0000   1.0000   1.0000   1.0000   1.0000   1.0000   1.0000
     1.0000   1.0000   1.0000   1.0000   1.0000   1.0000   1.0000   1.0000
     1.0000   1.0000   1.0000   1.0000   1.0000   1.0000   1.0000   1.0000
     1.0000   1.0000   1.0000   0.9972   0.0000   0.0000   0.0000   0.0000
     0.0000   0.0000   0.0000   0.0000   0.0000   0.0000   0.0000   0.0000
     0.0000   0.0000   0.0000   0.0000   0.0000   0.0000   0.0000

          k = 0.5000 0.0000 0.0000 (  4451 PWs)   bands (ev):

   -82.2356 -82.2349 -82.1737 -82.1733 -82.1716 -82.1560 -82.1557 -82.0945
   -82.0942 -45.8017 -45.7932 -45.7376 -45.7238 -45.6893 -45.6858 -45.6854
   -45.6810 -45.6713 -45.6694 -45.6674 -45.6480 -45.6444 -45.6434 -45.6313
   -45.6274 -45.6260 -45.6223 -45.6115 -45.6046 -45.6043 -45.5668 -45.5665
   -45.5550 -45.5546 -45.5377 -45.5372   3.9234   3.9653   4.0523   4.1139
     4.2966   4.3494   4.3677   4.4253   4.4882   4.5479   4.5814   4.6036
     4.6409   4.6724   4.6745   4.7629   4.8538   4.9783   5.0402   5.0483
     5.1776   5.2513   5.3100   5.3612   5.4550   5.4941   5.5071   5.6142
     5.6738   5.7397   5.8139   5.8475   5.9697   6.1059   6.1326   6.1811
     6.2657   6.2754   6.4330   6.6354   6.7800   6.8219   6.8502   6.9711
     7.0343   9.1928   9.3602   9.6190  10.0188  10.6228  11.4048  12.3094
    13.3712  14.4938  15.3109  15.3531  15.4815  15.6575  15.7576  15.9831
    16.0914  16.5348  16.8824  17.0623  17.2388  17.5243  17.8084

     occupation numbers 
     1.0000   1.0000   1.0000   1.0000   1.0000   1.0000   1.0000   1.0000
     1.0000   1.0000   1.0000   1.0000   1.0000   1.0000   1.0000   1.0000
     1.0000   1.0000   1.0000   1.0000   1.0000   1.0000   1.0000   1.0000
     1.0000   1.0000   1.0000   1.0000   1.0000   1.0000   1.0000   1.0000
     1.0000   1.0000   1.0000   1.0000   1.0000   1.0000   1.0000   1.0000
     1.0000   1.0000   1.0000   1.0000   1.0000   1.0000   1.0000   1.0000
     1.0000   1.0000   1.0000   1.0000   1.0000   1.0000   1.0000   1.0000
     1.0000   1.0000   1.0000   1.0000   1.0000   1.0000   1.0000   1.0000
     1.0000   1.0000   1.0000   1.0000   1.0000   1.0000   1.0000   1.0000
     1.0000   1.0000   1.0000   1.0000   1.0000   1.0000   1.0000   1.0000
     1.0000   1.0000   1.0000   0.9553   0.0000   0.0000   0.0000   0.0000
     0.0000   0.0000   0.0000   0.0000   0.0000   0.0000   0.0000   0.0000
     0.0000   0.0000   0.0000   0.0000   0.0000   0.0000   0.0000

     the Fermi energy is     9.6680 ev

!    total energy              =   -2660.36340240 Ry
     estimated scf accuracy    <       0.00000048 Ry
     smearing contrib. (-TS)   =      -0.00016857 Ry
     internal energy E=F+TS    =   -2660.36323382 Ry

     The total energy is F=E-TS. E is the sum of the following terms:
     one-electron contribution =  -15114.10045241 Ry
     hartree contribution      =    7597.45835540 Ry
     xc contribution           =    -260.71530038 Ry
     ewald contribution        =    5116.99416356 Ry

     convergence has been achieved in  11 iterations

     negative rho (up, down):  6.315E-04 0.000E+00

     Forces acting on atoms (cartesian axes, Ry/au):

     atom    1 type  1   force =    -0.01476964   -0.00917040   -0.02655416
     atom    2 type  1   force =    -0.01535830   -0.00978048   -0.02415393
     atom    3 type  1   force =    -0.00495672    0.00214813    0.00633728
     atom    4 type  1   force =     0.00496384   -0.00214758   -0.00669991
     atom    5 type  1   force =     0.01537252    0.00979318    0.02410427
     atom    6 type  1   force =     0.01476774    0.00917295    0.02641859
     atom    7 type  1   force =     0.00024499    0.00004317    0.00199012
     atom    8 type  1   force =    -0.00001206   -0.00001906    0.00034418
     atom    9 type  1   force =    -0.00025236   -0.00003991   -0.00178644
     The non-local contrib.  to forces
     atom    1 type  1   force =    -0.00013428    0.00010182    0.04787251
     atom    2 type  1   force =     0.00079870   -0.00459723   -0.00714535
     atom    3 type  1   force =     0.00200432    0.00029657    0.11954244
     atom    4 type  1   force =    -0.00201530   -0.00028745   -0.11981663
     atom    5 type  1   force =    -0.00079362    0.00459572    0.00744078
     atom    6 type  1   force =     0.00013649   -0.00009183   -0.04769985
     atom    7 type  1   force =    -0.00218387    0.00166455   -0.09549240
     atom    8 type  1   force =    -0.00000401    0.00000081    0.00042077
     atom    9 type  1   force =     0.00217507   -0.00166971    0.09574106
     The ionic contribution  to forces
     atom    1 type  1   force =    -1.42726636   -0.88450818 -213.85276307
     atom    2 type  1   force =    -1.42115507   -0.88813714  107.58436780
     atom    3 type  1   force =    -0.45506572    0.16376234  427.38462897
     atom    4 type  1   force =     0.45562444   -0.16395772 -427.43353893
     atom    5 type  1   force =     1.42142524    0.88793576 -107.56942606
     atom    6 type  1   force =     1.42711252    0.88463892  213.86904654
     atom    7 type  1   force =     0.04626231   -0.02125843 -321.79640914
     atom    8 type  1   force =    -0.00032260    0.00013171    0.01954887
     atom    9 type  1   force =    -0.04661475    0.02139273  321.79454503
     The local contribution  to forces
     atom    1 type  1   force =     1.41180391    0.87466921  213.77672135
     atom    2 type  1   force =     1.40420363    0.88233569 -107.60205923
     atom    3 type  1   force =     0.44791388   -0.16183406 -427.49507629
     atom    4 type  1   force =    -0.44845987    0.16202215  427.54596762
     atom    5 type  1   force =    -1.40446609   -0.88216508  107.58452603
     atom    6 type  1   force =    -1.41166101   -0.87479897 -213.79417235
     atom    7 type  1   force =    -0.04389717    0.01963243  321.88990227
     atom    8 type  1   force =     0.00031658   -0.00008693   -0.02270018
     atom    9 type  1   force =     0.04423375   -0.01978536 -321.88986759
     The core correction contribution to forces
     atom    1 type  1   force =     0.00008314    0.00005531   -0.00031735
     atom    2 type  1   force =     0.00003450    0.00001042   -0.00010239
     atom    3 type  1   force =    -0.00001591    0.00000958   -0.00093086
     atom    4 type  1   force =     0.00001657   -0.00001079    0.00093025
     atom    5 type  1   force =    -0.00003369   -0.00001079    0.00010454
     atom    6 type  1   force =    -0.00008243   -0.00005570    0.00031912
     atom    7 type  1   force =    -0.00000439    0.00000588    0.00046444
     atom    8 type  1   force =     0.00000059    0.00000032    0.00000067
     atom    9 type  1   force =     0.00000561   -0.00000518   -0.00046313
     The Hubbard contrib.    to forces
     atom    1 type  1   force =     0.00000000    0.00000000    0.00000000
     atom    2 type  1   force =     0.00000000    0.00000000    0.00000000
     atom    3 type  1   force =     0.00000000    0.00000000    0.00000000
     atom    4 type  1   force =     0.00000000    0.00000000    0.00000000
     atom    5 type  1   force =     0.00000000    0.00000000    0.00000000
     atom    6 type  1   force =     0.00000000    0.00000000    0.00000000
     atom    7 type  1   force =     0.00000000    0.00000000    0.00000000
     atom    8 type  1   force =     0.00000000    0.00000000    0.00000000
     atom    9 type  1   force =     0.00000000    0.00000000    0.00000000
     The SCF correction term to forces
     atom    1 type  1   force =     0.00074346    0.00051289    0.00202003
     atom    2 type  1   force =     0.00075945    0.00060923    0.00087287
     atom    3 type  1   force =     0.00020622   -0.00008485   -0.00173934
     atom    4 type  1   force =    -0.00020248    0.00008768   -0.00015460
     atom    5 type  1   force =    -0.00075981   -0.00056098    0.00154661
     atom    6 type  1   force =    -0.00073834   -0.00051802   -0.00098725
     atom    7 type  1   force =     0.00006762    0.00000019    0.00361258
     atom    8 type  1   force =    -0.00000312   -0.00006353    0.00316168
     atom    9 type  1   force =    -0.00005253    0.00002905   -0.00165418

     Total force =     0.063140     Total SCF correction =     0.006373
     SCF correction compared to forces is large: reduce conv_thr to get better values


     Computing stress (Cartesian axis) and pressure


     negative rho (up, down):  6.315E-04 0.000E+00
          total   stress  (Ry/bohr**3)                   (kbar)     P=      -53.15
  -0.00048516  -0.00001942  -0.00003406          -71.37       -2.86       -5.01
  -0.00001942  -0.00041658   0.00009882           -2.86      -61.28       14.54
  -0.00003406   0.00009882  -0.00018227           -5.01       14.54      -26.81

     kinetic stress (kbar)  37027.24     24.86      1.98
                               24.86  37012.70    -14.09
                                1.98    -14.09  37047.12

     local   stress (kbar)**********   2335.31    656.86
                             2335.31**********  -2098.92
                              656.86  -2098.921280351.22

     nonloc. stress (kbar)   4354.40      4.84      1.80
                                4.84   4354.04     -4.89
                                1.80     -4.89   4317.51

     hartree stress (kbar) 656173.53   -907.79   -246.00
                             -907.79 657256.43    780.97
                             -246.00    780.97-614631.00

     exc-cor stress (kbar)  -6675.02     -0.73     -0.33
                               -0.73  -6673.96      1.09
                               -0.33      1.09  -6675.00

     corecor stress (kbar)   -902.37     -0.03     -0.01
                               -0.03   -902.37      0.02
                               -0.01      0.02   -902.17

     ewald   stress (kbar) 584239.86  -1459.32   -419.30
                            -1459.32 585945.50   1350.35
                             -419.30   1350.35-699534.50

     hubbard stress (kbar)      0.00      0.00      0.00
                                0.00      0.00      0.00
                                0.00      0.00      0.00

     DFT-D   stress (kbar)      0.00      0.00      0.00
                                0.00      0.00      0.00
                                0.00      0.00      0.00

     XDM     stress (kbar)      0.00      0.00      0.00
                                0.00      0.00      0.00
                                0.00      0.00      0.00

     dft-nl  stress (kbar)      0.00      0.00      0.00
                                0.00      0.00      0.00
                                0.00      0.00      0.00

     TS-vdW  stress (kbar)      0.00      0.00      0.00
                                0.00      0.00      0.00
                                0.00      0.00      0.00


     Energy error            =      7.5E-03
     Gradient error          =      2.7E-02

     number of scf cycles    =   2
     number of bfgs steps    =   1

     energy   old            =   -2660.3559051965 Ry
     energy   new            =   -2660.3634023977 Ry

     CASE: energy  _new < energy  _old

     new trust radius        =       0.0533714008 bohr
     new conv_thr            =       0.0000002655 Ry


ATOMIC_POSITIONS (angstrom)
Ag            0.9587794147        1.9464646190        4.7573275063
Ag            0.9578615641        1.9456579851       11.9676111795
Ag            0.9735372436        1.9644173893       19.2269759357
Ag            0.0071249468       -0.0031197303       -0.0099928150
Ag            0.0227983619        0.0156538499        7.2489380503
Ag            0.0218688241        0.0148453259       14.4591216847
Ag            1.9611730609        0.9809272120        2.4068178901
Ag            1.9612928070        0.9806359297        9.6084461625
Ag            1.9614137769        0.9803674195       16.8101144060



     Writing output data file ./surface.save/
     NEW-OLD atomic charge density approx. for the potential

     negative rho (up, down):  6.104E-04 0.000E+00

     total cpu time spent up to now is       35.2 secs

     Self-consistent Calculation

     iteration #  1     ecut=    30.00 Ry     beta= 0.30
     Davidson diagonalization with overlap
     ethr =  1.00E-06,  avg # of iterations =  6.5

     negative rho (up, down):  6.081E-04 0.000E+00

     total cpu time spent up to now is       37.6 secs

     total energy              =   -2660.35602712 Ry
     estimated scf accuracy    <       0.02706047 Ry

     iteration #  2     ecut=    30.00 Ry     beta= 0.30
     Davidson diagonalization with overlap
     ethr =  1.58E-05,  avg # of iterations =  7.7

     negative rho (up, down):  6.121E-04 0.000E+00

     total cpu time spent up to now is       39.3 secs

     total energy              =   -2660.29732341 Ry
     estimated scf accuracy    <       3.98753588 Ry

     iteration #  3     ecut=    30.00 Ry     beta= 0.30
[...]
     1.0000   1.0000   1.0000   1.0000   1.0000   1.0000   1.0000   1.0000
     1.0000   1.0000   1.0000   1.0000   1.0000   1.0000   1.0000   1.0000
     1.0000   1.0000   1.0000   1.0000   1.0000   1.0000   1.0000   1.0000
     1.0000   1.0000   1.0000   1.0000   1.0000   1.0000   1.0000   1.0000
     1.0000   1.0000   1.0000   1.0000   1.0000   1.0000   1.0000   1.0000
     1.0000   1.0000   0.0000   0.0000   0.0000   0.0000   0.0000   0.0000
     0.0000   0.0000   0.0000   0.0000   0.0000   0.0000   0.0000   0.0000
     0.0000   0.0000   0.0000   0.0000   0.0000   0.0000   0.0000

          k =-0.5000-0.2887 0.0000 (  4440 PWs)   bands (ev):

   -82.2200 -82.2193 -82.2077 -82.2066 -82.1762 -82.1746 -82.1331 -82.1322
   -82.1244 -45.7462 -45.7401 -45.7392 -45.7370 -45.7236 -45.7221 -45.6942
   -45.6872 -45.6764 -45.6696 -45.6690 -45.6675 -45.6503 -45.6495 -45.6486
   -45.6474 -45.6338 -45.6325 -45.6172 -45.6156 -45.6148 -45.6023 -45.5836
   -45.5819 -45.5662 -45.5653 -45.5514   3.5721   3.6022   3.6723   3.6931
     3.7425   3.8173   3.8451   3.9469   3.9637   4.0496   4.0530   4.0570
     4.3315   4.6407   4.8209   4.9343   5.0190   5.0206   5.0950   5.1442
     5.3752   5.5702   5.6037   5.6065   5.8716   5.9189   5.9303   6.1202
     6.3226   6.3257   6.4127   6.6063   6.6480   6.6575   6.7035   6.7418
     6.7460   6.7532   6.7549   6.8039   6.8163   6.8892   6.8895   6.8996
     6.9617   9.4623   9.7705  10.1650  10.4746  10.7178  10.9073  11.0793
    11.2680  11.3980  13.0452  13.2866  13.6930  14.0996  14.6311  15.3062
    16.1334  16.6504  17.0035  17.7609  18.2520  18.3923  18.6515

     occupation numbers 
     1.0000   1.0000   1.0000   1.0000   1.0000   1.0000   1.0000   1.0000
     1.0000   1.0000   1.0000   1.0000   1.0000   1.0000   1.0000   1.0000
     1.0000   1.0000   1.0000   1.0000   1.0000   1.0000   1.0000   1.0000
     1.0000   1.0000   1.0000   1.0000   1.0000   1.0000   1.0000   1.0000
     1.0000   1.0000   1.0000   1.0000   1.0000   1.0000   1.0000   1.0000
     1.0000   1.0000   1.0000   1.0000   1.0000   1.0000   1.0000   1.0000
     1.0000   1.0000   1.0000   1.0000   1.0000   1.0000   1.0000   1.0000
     1.0000   1.0000   1.0000   1.0000   1.0000   1.0000   1.0000   1.0000
     1.0000   1.0000   1.0000   1.0000   1.0000   1.0000   1.0000   1.0000
     1.0000   1.0000   1.0000   1.0000   1.0000   1.0000   1.0000   1.0000
     1.0000   1.0000   0.0003   0.0000   0.0000   0.0000   0.0000   0.0000
     0.0000   0.0000   0.0000   0.0000   0.0000   0.0000   0.0000   0.0000
     0.0000   0.0000   0.0000   0.0000   0.0000   0.0000   0.0000

          k =-0.2500 0.4330 0.0000 (  4451 PWs)   bands (ev):

   -82.2199 -82.2192 -82.2078 -82.2067 -82.1761 -82.1746 -82.1331 -82.1322
   -82.1244 -45.7290 -45.7261 -45.7235 -45.7223 -45.7065 -45.7051 -45.6967
   -45.6938 -45.6803 -45.6765 -45.6729 -45.6721 -45.6675 -45.6663 -45.6612
   -45.6591 -45.6257 -45.6244 -45.6110 -45.6099 -45.6040 -45.5995 -45.5895
   -45.5881 -45.5761 -45.5749 -45.5672   4.0136   4.0222   4.1205   4.1378
     4.2493   4.2811   4.3690   4.4441   4.4802   4.5006   4.5687   4.5831
     4.6797   4.6829   4.7601   4.7683   4.8421   4.9973   5.0136   5.0223
     5.2111   5.2132   5.3723   5.3975   5.4562   5.4651   5.5026   5.5475
     5.7384   5.7951   5.8192   5.8790   6.0023   6.0319   6.0807   6.0881
     6.1484   6.2693   6.4757   6.6356   6.7469   6.7923   6.8190   6.8296
     6.9201   9.1242   9.2558   9.5534   9.9850  10.6372  11.4494  12.4256
    13.4809  14.6103  15.3003  15.3197  15.4501  15.5415  15.6898  15.8848
    16.1879  16.6312  17.0073  17.0594  17.4836  17.5236  18.0454

     occupation numbers 
     1.0000   1.0000   1.0000   1.0000   1.0000   1.0000   1.0000   1.0000
     1.0000   1.0000   1.0000   1.0000   1.0000   1.0000   1.0000   1.0000
     1.0000   1.0000   1.0000   1.0000   1.0000   1.0000   1.0000   1.0000
     1.0000   1.0000   1.0000   1.0000   1.0000   1.0000   1.0000   1.0000
     1.0000   1.0000   1.0000   1.0000   1.0000   1.0000   1.0000   1.0000
     1.0000   1.0000   1.0000   1.0000   1.0000   1.0000   1.0000   1.0000
     1.0000   1.0000   1.0000   1.0000   1.0000   1.0000   1.0000   1.0000
     1.0000   1.0000   1.0000   1.0000   1.0000   1.0000   1.0000   1.0000
     1.0000   1.0000   1.0000   1.0000   1.0000   1.0000   1.0000   1.0000
     1.0000   1.0000   1.0000   1.0000   1.0000   1.0000   1.0000   1.0000
     1.0000   1.0000   1.0000   1.0000   0.0000   0.0000   0.0000   0.0000
     0.0000   0.0000   0.0000   0.0000   0.0000   0.0000   0.0000   0.0000
     0.0000   0.0000   0.0000   0.0000   0.0000   0.0000   0.0000

          k = 0.5000 0.0000 0.0000 (  4451 PWs)   bands (ev):

   -82.2199 -82.2193 -82.2078 -82.2067 -82.1761 -82.1746 -82.1331 -82.1322
   -82.1244 -45.7272 -45.7243 -45.7211 -45.7191 -45.7065 -45.7052 -45.7010
   -45.6983 -45.6797 -45.6762 -45.6716 -45.6707 -45.6686 -45.6677 -45.6621
   -45.6602 -45.6260 -45.6246 -45.6099 -45.6087 -45.6034 -45.5992 -45.5898
   -45.5884 -45.5764 -45.5752 -45.5678   4.0331   4.0495   4.1371   4.1599
     4.2326   4.2726   4.3608   4.4353   4.4769   4.4903   4.5645   4.5921
     4.6811   4.6859   4.7363   4.7530   4.8495   4.9915   4.9984   5.0268
     5.1837   5.2009   5.3669   5.3897   5.4618   5.4681   5.4991   5.5475
     5.7659   5.8113   5.8175   5.8633   5.9894   6.0415   6.0800   6.0934
     6.1548   6.2806   6.4749   6.6265   6.7371   6.7815   6.8140   6.8533
     6.9522   9.1253   9.2592   9.5597   9.9917  10.6399  11.4454  12.4166
    13.4723  14.5963  15.3143  15.3183  15.4224  15.5531  15.6893  15.8909
    16.1449  16.5716  17.0068  17.0436  17.4845  17.5466  18.0061

     occupation numbers 
     1.0000   1.0000   1.0000   1.0000   1.0000   1.0000   1.0000   1.0000
     1.0000   1.0000   1.0000   1.0000   1.0000   1.0000   1.0000   1.0000
     1.0000   1.0000   1.0000   1.0000   1.0000   1.0000   1.0000   1.0000
     1.0000   1.0000   1.0000   1.0000   1.0000   1.0000   1.0000   1.0000
     1.0000   1.0000   1.0000   1.0000   1.0000   1.0000   1.0000   1.0000
     1.0000   1.0000   1.0000   1.0000   1.0000   1.0000   1.0000   1.0000
     1.0000   1.0000   1.0000   1.0000   1.0000   1.0000   1.0000   1.0000
     1.0000   1.0000   1.0000   1.0000   1.0000   1.0000   1.0000   1.0000
     1.0000   1.0000   1.0000   1.0000   1.0000   1.0000   1.0000   1.0000
     1.0000   1.0000   1.0000   1.0000   1.0000   1.0000   1.0000   1.0000
     1.0000   1.0000   1.0000   0.9999   0.0000   0.0000   0.0000   0.0000
     0.0000   0.0000   0.0000   0.0000   0.0000   0.0000   0.0000   0.0000
     0.0000   0.0000   0.0000   0.0000   0.0000   0.0000   0.0000

     the Fermi energy is     9.6703 ev

!    total energy              =   -2660.41402722 Ry
     estimated scf accuracy    <          4.8E-09 Ry
     smearing contrib. (-TS)   =      -0.00000062 Ry
     internal energy E=F+TS    =   -2660.41402660 Ry

     The total energy is F=E-TS. E is the sum of the following terms:
     one-electron contribution =  -15835.75373039 Ry
     hartree contribution      =    7958.22595351 Ry
     xc contribution           =    -260.67834034 Ry
     ewald contribution        =    5477.79209062 Ry

     convergence has been achieved in  12 iterations

     negative rho (up, down):  7.208E-04 0.000E+00

     Forces acting on atoms (cartesian axes, Ry/au):

     atom    1 type  1   force =    -0.00015322   -0.00033541    0.00062537
     atom    2 type  1   force =     0.00051718   -0.00010398   -0.00067515
     atom    3 type  1   force =    -0.00019982   -0.00022563    0.00007404
     atom    4 type  1   force =     0.00018791    0.00022246    0.00020688
     atom    5 type  1   force =    -0.00050711    0.00012868   -0.00056334
     atom    6 type  1   force =     0.00014489    0.00032213    0.00004544
     atom    7 type  1   force =     0.00072259    0.00048314   -0.00088196
     atom    8 type  1   force =    -0.00000299   -0.00002112    0.00092526
     atom    9 type  1   force =    -0.00070944   -0.00047029    0.00024347
     The non-local contrib.  to forces
     atom    1 type  1   force =     0.00040340    0.00008112    0.01787557
     atom    2 type  1   force =     0.00011750   -0.00000563   -0.01011123
     atom    3 type  1   force =    -0.00001340   -0.00007009    0.10963661
     atom    4 type  1   force =     0.00001715    0.00006789   -0.10902831
     atom    5 type  1   force =    -0.00011921    0.00000544    0.00887769
     atom    6 type  1   force =    -0.00039474   -0.00008936   -0.01752819
     atom    7 type  1   force =     0.00056069    0.00039189   -0.10445122
     atom    8 type  1   force =    -0.00000862   -0.00000521    0.00087007
     atom    9 type  1   force =    -0.00054511   -0.00040223    0.10385276
     The ionic contribution  to forces
     atom    1 type  1   force =    -0.01366094   -0.02606441 -220.83719352
     atom    2 type  1   force =     0.04562383   -0.00444423  110.57517414
     atom    3 type  1   force =    -0.01992110   -0.02175655  436.00896199
     atom    4 type  1   force =     0.01945457    0.02153934 -435.90781336
     atom    5 type  1   force =    -0.04526687    0.00573744 -110.75847290
     atom    6 type  1   force =     0.01310229    0.02530381  220.86778830
     atom    7 type  1   force =     0.05462955    0.03264824 -332.42664789
     atom    8 type  1   force =     0.00024926   -0.00111791    0.26731878
     atom    9 type  1   force =    -0.05421061   -0.03184573  332.21088445
     The local contribution  to forces
     atom    1 type  1   force =     0.01303554    0.02563784  220.81994692
     atom    2 type  1   force =    -0.04512283    0.00436074 -110.56549829
     atom    3 type  1   force =     0.01970584    0.02152969 -436.11758891
     atom    4 type  1   force =    -0.01924890   -0.02130874  436.01620086
     atom    5 type  1   force =     0.04478044   -0.00563757  110.74878262
     atom    6 type  1   force =    -0.01249353   -0.02488763 -220.85024382
     atom    7 type  1   force =    -0.05434742   -0.03257818  332.52948232
     atom    8 type  1   force =    -0.00024437    0.00110008   -0.26727108
     atom    9 type  1   force =     0.05393538    0.03179027 -332.31377815
     The core correction contribution to forces
     atom    1 type  1   force =     0.00000087    0.00000020   -0.00013355
     atom    2 type  1   force =     0.00000029    0.00000053   -0.00009212
     atom    3 type  1   force =    -0.00000051   -0.00000146   -0.00087277
     atom    4 type  1   force =     0.00000024    0.00000072    0.00086690
     atom    5 type  1   force =    -0.00000109    0.00000098    0.00010204
     atom    6 type  1   force =    -0.00000176    0.00000056    0.00013321
     atom    7 type  1   force =     0.00000240    0.00000282    0.00054264
     atom    8 type  1   force =     0.00000063    0.00000030   -0.00000495
     atom    9 type  1   force =    -0.00000356   -0.00000154   -0.00053812
     The Hubbard contrib.    to forces
     atom    1 type  1   force =     0.00000000    0.00000000    0.00000000
     atom    2 type  1   force =     0.00000000    0.00000000    0.00000000
     atom    3 type  1   force =     0.00000000    0.00000000    0.00000000
     atom    4 type  1   force =     0.00000000    0.00000000    0.00000000
     atom    5 type  1   force =     0.00000000    0.00000000    0.00000000
     atom    6 type  1   force =     0.00000000    0.00000000    0.00000000
     atom    7 type  1   force =     0.00000000    0.00000000    0.00000000
     atom    8 type  1   force =     0.00000000    0.00000000    0.00000000
     atom    9 type  1   force =     0.00000000    0.00000000    0.00000000
     The SCF correction term to forces
     atom    1 type  1   force =     0.00006886    0.00000713    0.00012757
     atom    2 type  1   force =    -0.00010068   -0.00001812   -0.00015003
     atom    3 type  1   force =     0.00003028    0.00007007   -0.00006527
     atom    4 type  1   force =    -0.00003421   -0.00007946   -0.00002158
     atom    5 type  1   force =     0.00010056    0.00001968    0.00014484
     atom    6 type  1   force =    -0.00006643   -0.00000797   -0.00010644
     atom    7 type  1   force =    -0.00012170    0.00001564    0.00018983
     atom    8 type  1   force =     0.00000105   -0.00000111    0.00001007
     atom    9 type  1   force =     0.00011541   -0.00001378   -0.00017983

     Total force =     0.002319     Total SCF correction =     0.000465
     SCF correction compared to forces is large: reduce conv_thr to get better values


     Computing stress (Cartesian axis) and pressure


     negative rho (up, down):  7.208E-04 0.000E+00
          total   stress  (Ry/bohr**3)                   (kbar)     P=      -63.48
  -0.00042299  -0.00000644  -0.00001223          -62.22       -0.95       -1.80
  -0.00000644  -0.00041281  -0.00000999           -0.95      -60.73       -1.47
  -0.00001223  -0.00000999  -0.00045870           -1.80       -1.47      -67.48

     kinetic stress (kbar)  37002.09      1.23      0.76
                                1.23  37000.17      0.58
                                0.76      0.58  37046.43

     local   stress (kbar)**********    248.98    219.63
                              248.98**********    177.41
                              219.63    177.411351694.79

     nonloc. stress (kbar)   4354.36     -0.09      0.30
                               -0.09   4354.44      0.25
                                0.30      0.25   4329.69

     hartree stress (kbar) 690808.13    -96.86    -82.43
                              -96.86 690959.19    -66.57
                              -82.43    -66.57-649785.67

     exc-cor stress (kbar)  -6672.74     -0.10     -0.12
                               -0.10  -6672.58     -0.10
                               -0.12     -0.10  -6675.32

     corecor stress (kbar)   -902.34      0.00     -0.00
                                0.00   -902.34     -0.00
                               -0.00     -0.00   -902.18

     ewald   stress (kbar) 619685.57   -154.11   -139.93
                             -154.11 619925.97   -113.04
                             -139.93   -113.04-735775.22

     hubbard stress (kbar)      0.00      0.00      0.00
                                0.00      0.00      0.00
                                0.00      0.00      0.00

     DFT-D   stress (kbar)      0.00      0.00      0.00
                                0.00      0.00      0.00
                                0.00      0.00      0.00

     XDM     stress (kbar)      0.00      0.00      0.00
                                0.00      0.00      0.00
                                0.00      0.00      0.00

     dft-nl  stress (kbar)      0.00      0.00      0.00
                                0.00      0.00      0.00
                                0.00      0.00      0.00

     TS-vdW  stress (kbar)      0.00      0.00      0.00
                                0.00      0.00      0.00
                                0.00      0.00      0.00


     Energy error            =      6.0E-05
     Gradient error          =      9.3E-04

     bfgs converged in  40 scf cycles and  39 bfgs steps
     (criteria: energy <  1.0E-04 Ry, force <  1.0E-03 Ry/Bohr)

     End of BFGS Geometry Optimization

     Final energy   =   -2660.4140272161 Ry

     File ./surface.bfgs deleted, as requested
Begin final coordinates

ATOMIC_POSITIONS (angstrom)
Ag            0.4453258362        1.7942976767        4.8701631607
Ag            0.4990743146        1.8483807244       11.9754635789
Ag            0.5924402110        1.9104075885       19.1291056149
Ag            0.3886261876        0.0508447570        0.0864792829
Ag            0.4813403249        0.1129181140        7.2435923207
Ag            0.5352082756        0.1670052609       14.3460537227
Ag            1.8727500831        0.9142577321        2.5168838329
Ag            1.9610207347        0.9807688917        9.6052940769
Ag            2.0500640324        1.0469692548       16.7023244093
End final coordinates



     Writing output data file ./surface.save/

     init_run     :      0.50s CPU      0.54s WALL (       1 calls)
     electrons    :    587.15s CPU    598.07s WALL (      40 calls)
     update_pot   :      4.89s CPU      4.96s WALL (      39 calls)
     forces       :     10.33s CPU     10.55s WALL (      40 calls)
     stress       :     30.64s CPU     30.91s WALL (      40 calls)

     Called by init_run:
     wfcinit      :      0.31s CPU      0.32s WALL (       1 calls)
     wfcinit:atom :      0.00s CPU      0.00s WALL (      10 calls)
     wfcinit:wfcr :      0.29s CPU      0.30s WALL (      10 calls)
     potinit      :      0.05s CPU      0.05s WALL (       1 calls)
     hinit0       :      0.09s CPU      0.10s WALL (       1 calls)

     Called by electrons:
     c_bands      :    488.63s CPU    496.53s WALL (     551 calls)
     sum_band     :     71.93s CPU     73.33s WALL (     551 calls)
     v_of_rho     :      8.19s CPU      8.53s WALL (     591 calls)
     v_h          :      0.38s CPU      0.39s WALL (     591 calls)
     v_xc         :      8.85s CPU      9.22s WALL (     671 calls)
     newd         :     18.36s CPU     18.51s WALL (     591 calls)
     mix_rho      :      0.83s CPU      0.84s WALL (     551 calls)

     Called by c_bands:
     init_us_2    :      2.15s CPU      2.25s WALL (   11830 calls)
     cegterg      :    479.23s CPU    486.59s WALL (    5510 calls)

     Called by sum_band:
     sum_band:wei :      0.15s CPU      0.17s WALL (     551 calls)
     sum_band:loo :     42.36s CPU     43.47s WALL (     551 calls)
     sum_band:buf :      0.62s CPU      0.63s WALL (    5510 calls)
     sum_band:ini :      0.74s CPU      0.76s WALL (    5510 calls)
     sum_band:cal :     10.78s CPU     10.92s WALL (    5510 calls)
     sum_band:bec :      0.59s CPU      0.60s WALL (    5510 calls)
     addusdens    :     24.99s CPU     25.23s WALL (     551 calls)
     addusd:skk   :      0.17s CPU      0.18s WALL (     551 calls)
     addusd:dgemm :     13.25s CPU     13.40s WALL (     551 calls)
     addusd:qvan2 :      9.74s CPU      9.80s WALL (     551 calls)

     Called by *egterg:
     cdiaghg      :    155.50s CPU    156.72s WALL (   21613 calls)
     cegterg:over :     43.10s CPU     43.47s WALL (   16493 calls)
     cegterg:upda :     21.81s CPU     21.98s WALL (   16493 calls)
     cegterg:last :     41.29s CPU     41.59s WALL (    9015 calls)
     cdiaghg:chol :      6.89s CPU      6.97s WALL (   21613 calls)
     cdiaghg:inve :      6.58s CPU      6.65s WALL (   21613 calls)
     cdiaghg:para :     17.02s CPU     17.17s WALL (   43226 calls)
     h_psi        :    185.08s CPU    190.17s WALL (   22013 calls)
     s_psi        :     16.31s CPU     16.45s WALL (   22013 calls)
     g_psi        :      0.50s CPU      0.51s WALL (   16493 calls)

     Called by h_psi:
     h_psi:calbec :     32.27s CPU     32.71s WALL (   22013 calls)
     vloc_psi     :    132.53s CPU    137.03s WALL (   22013 calls)
     add_vuspsi   :     18.92s CPU     19.08s WALL (   22013 calls)

     General routines
     calbec       :     47.38s CPU     48.02s WALL (   29523 calls)
     fft          :      9.28s CPU      9.39s WALL (    8642 calls)
     ffts         :      0.16s CPU      0.16s WALL (    1142 calls)
     fftw         :    146.98s CPU    151.91s WALL ( 3177608 calls)
     interpolate  :      0.47s CPU      0.47s WALL (     591 calls)

     Parallel routines
     fft_scatt_xy :     18.95s CPU     19.58s WALL ( 3187392 calls)
     fft_scatt_yz :     81.29s CPU     83.90s WALL ( 3187392 calls)

     PWSCF        :  10m35.44s CPU  10m48.77s WALL


   This run was terminated on:   4: 2:24  10Dec2021            

=------------------------------------------------------------------------------=
   JOB DONE.
=------------------------------------------------------------------------------=
