
     Program PWSCF v.6.7MaX starts on 10Dec2021 at  3:51:24 

     This program is part of the open-source Quantum ESPRESSO suite
     for quantum simulation of materials; please cite
         "P. Giannozzi et al., J. Phys.:Condens. Matter 21 395502 (2009);
         "P. Giannozzi et al., J. Phys.:Condens. Matter 29 465901 (2017);
          URL http://www.quantum-espresso.org", 
     in publications or presentations arising from this work. More details at
     http://www.quantum-espresso.org/quote

     Parallel version (MPI), running on    16 processors

     MPI processes distributed on     1 nodes
     R & G space division:  proc/nbgrp/npool/nimage =      16
     Reading input from au_surface.111.qe.7656379.1_1_3.in

     Current dimensions of program PWSCF are:
     Max number of different atomic species (ntypx) = 10
     Max number of k-points (npk) =  40000
     Max angular momentum in pseudopotentials (lmaxx) =  3

     Subspace diagonalization in iterative solution of the eigenvalue problem:
     one sub-group per band group will be used
     scalapack distributed-memory algorithm (size of sub-group:  4*  4 procs)


     Parallelization info
     --------------------
     sticks:   dense  smooth     PW     G-vecs:    dense   smooth      PW
     Min          40      15      5                 8826     2203     389
     Max          41      16      6                 8861     2258     414
     Sum         649     253     85               141535    35825    6393



     bravais-lattice index     =           14
     lattice parameter (alat)  =       5.5738  a.u.
     unit-cell volume          =    1610.4619 (a.u.)^3
     number of atoms/cell      =            9
     number of atomic types    =            1
     number of electrons       =        99.00
     number of Kohn-Sham states=           60
     kinetic-energy cutoff     =      30.0000  Ry
     charge density cutoff     =     300.0000  Ry
     scf convergence threshold =      1.0E-06
     mixing beta               =       0.3000
     number of iterations used =            8  plain     mixing
     energy convergence thresh.=      1.0E-04
     force convergence thresh. =      1.0E-03
     Exchange-correlation= SLA  PW   PBE  PBE
                           (   1   4   3   4   0   0   0)
     nstep                     =           50


     celldm(1)=   5.573842  celldm(2)=   1.000000  celldm(3)=  10.738804
     celldm(4)=   0.000000  celldm(5)=   0.000000  celldm(6)=  -0.500000

     crystal axes: (cart. coord. in units of alat)
               a(1) = (   1.000000   0.000000   0.000000 )  
               a(2) = (  -0.500000   0.866025   0.000000 )  
               a(3) = (   0.000000   0.000000  10.738804 )  

     reciprocal axes: (cart. coord. in units 2 pi/alat)
               b(1) = (  1.000000  0.577350 -0.000000 )  
               b(2) = (  0.000000  1.154701  0.000000 )  
               b(3) = (  0.000000 -0.000000  0.093120 )  


     PseudoPot. # 1 for Au read from file:
     /expanse/lustre/projects/csd622/tpascal/nano110/qe/pseudo/au_pbe_v1.uspp.F.UPF
     MD5 check sum: 9d7f43293ad2c663164586bc4b293ffc
     Pseudo is Ultrasoft + core correction, Zval = 11.0
     Generated by new atomic code, or converted to UPF format
     Using radial grid of  985 points,  7 beta functions with: 
                l(1) =   0
                l(2) =   0
                l(3) =   1
                l(4) =   1
                l(5) =   2
                l(6) =   2
                l(7) =   3
     Q(r) pseudized with  6 coefficients,  rinner =    1.900   1.900   1.900
                                                       1.900   1.900   1.900
                                                       1.900

     atomic species   valence    mass     pseudopotential
        Au            11.00   196.96655     Au( 1.00)

     No symmetry found


                                    s                        frac. trans.

      isym =  1     identity                                     

 cryst.   s( 1) = (     1          0          0      )
                  (     0          1          0      )
                  (     0          0          1      )

 cart.    s( 1) = (  1.0000000  0.0000000  0.0000000 )
                  (  0.0000000  1.0000000  0.0000000 )
                  (  0.0000000  0.0000000  1.0000000 )


     point group C_1 (1)    
     there are  1 classes
     the character table:

       E    
A      1.00

     the symmetry operations in each class and the name of the first element:

     E        1
          identity                                               

   Cartesian axes

     site n.     atom                  positions (alat units)
         1           Au  tau(   1) = (   0.3333329   0.6666671   1.6329911  )
         2           Au  tau(   2) = (   0.3333329   0.6666671   4.0824766  )
         3           Au  tau(   3) = (   0.3333329   0.6666671   6.5319622  )
         4           Au  tau(   4) = (   0.0000000   0.0000000   0.0000000  )
         5           Au  tau(   5) = (   0.0000000   0.0000000   2.4494855  )
         6           Au  tau(   6) = (   0.0000000   0.0000000   4.8989710  )
         7           Au  tau(   7) = (   0.6666671   0.3333329   0.8164944  )
         8           Au  tau(   8) = (   0.6666671   0.3333329   3.2659799  )
         9           Au  tau(   9) = (   0.6666671   0.3333329   5.7154654  )

   Crystallographic axes

     site n.     atom                  positions (cryst. coord.)
         1           Au  tau(   1) = (  0.7182333  0.7698009  0.1520645  )
         2           Au  tau(   2) = (  0.7182333  0.7698009  0.3801612  )
         3           Au  tau(   3) = (  0.7182333  0.7698009  0.6082579  )
         4           Au  tau(   4) = (  0.0000000  0.0000000  0.0000000  )
         5           Au  tau(   5) = (  0.0000000  0.0000000  0.2280967  )
         6           Au  tau(   6) = (  0.0000000  0.0000000  0.4561933  )
         7           Au  tau(   7) = (  0.8591169  0.3848997  0.0760322  )
         8           Au  tau(   8) = (  0.8591169  0.3848997  0.3041288  )
         9           Au  tau(   9) = (  0.8591169  0.3848997  0.5322255  )

     number of k points=    10  Gaussian smearing, width (Ry)=  0.0030
                       cart. coord. in units 2pi/alat
        k(    1) = (   0.0000000   0.0000000   0.0000000), wk =   0.1250000
        k(    2) = (   0.0000000   0.2886751   0.0000000), wk =   0.2500000
        k(    3) = (   0.0000000  -0.5773503   0.0000000), wk =   0.1250000
        k(    4) = (   0.2500000   0.4330127   0.0000000), wk =   0.2500000
        k(    5) = (  -0.2500000   0.1443376   0.0000000), wk =   0.2500000
        k(    6) = (   0.2500000   0.1443376   0.0000000), wk =   0.2500000
        k(    7) = (   0.5000000  -0.2886751   0.0000000), wk =   0.1250000
        k(    8) = (  -0.5000000  -0.2886751   0.0000000), wk =   0.1250000
        k(    9) = (  -0.2500000   0.4330127   0.0000000), wk =   0.2500000
        k(   10) = (   0.5000000   0.0000000   0.0000000), wk =   0.2500000

                       cryst. coord.
        k(    1) = (   0.0000000   0.0000000   0.0000000), wk =   0.1250000
        k(    2) = (   0.0000000   0.2500000   0.0000000), wk =   0.2500000
        k(    3) = (   0.0000000  -0.5000000   0.0000000), wk =   0.1250000
        k(    4) = (   0.2500000   0.2500000   0.0000000), wk =   0.2500000
        k(    5) = (  -0.2500000   0.2500000   0.0000000), wk =   0.2500000
        k(    6) = (   0.2500000   0.0000000   0.0000000), wk =   0.2500000
        k(    7) = (   0.5000000  -0.5000000   0.0000000), wk =   0.1250000
        k(    8) = (  -0.5000000   0.0000000   0.0000000), wk =   0.1250000
        k(    9) = (  -0.2500000   0.5000000   0.0000000), wk =   0.2500000
        k(   10) = (   0.5000000  -0.2500000   0.0000000), wk =   0.2500000

     Dense  grid:   141535 G-vectors     FFT dimensions: (  32,  32, 360)

     Smooth grid:    35825 G-vectors     FFT dimensions: (  20,  20, 216)

     Dynamical RAM for                 wfc:       0.26 MB

     Dynamical RAM for     wfc (w. buffer):       2.81 MB

     Dynamical RAM for           str. fact:       0.13 MB

     Dynamical RAM for           local pot:       0.00 MB

     Dynamical RAM for          nlocal pot:       0.96 MB

     Dynamical RAM for                qrad:       2.60 MB

     Dynamical RAM for          rho,v,vnew:       0.94 MB

     Dynamical RAM for               rhoin:       0.31 MB

     Dynamical RAM for            rho*nmix:       2.16 MB

     Dynamical RAM for           G-vectors:       0.52 MB

     Dynamical RAM for          h,s,v(r/c):       0.04 MB

     Dynamical RAM for          <psi|beta>:       0.21 MB

     Dynamical RAM for                 psi:       0.51 MB

     Dynamical RAM for                hpsi:       0.51 MB

     Dynamical RAM for                spsi:       0.51 MB

     Dynamical RAM for      wfcinit/wfcrot:       0.84 MB

     Dynamical RAM for           addusdens:      48.65 MB

     Dynamical RAM for          addusforce:      50.94 MB

     Dynamical RAM for         addusstress:      51.08 MB

     Estimated static dynamical RAM per process >      11.60 MB

     Estimated max dynamical RAM per process >      62.68 MB

     Estimated total dynamical RAM >    1002.87 MB

     Check: negative core charge=   -0.000002

     Initial potential from superposition of free atoms

     starting charge   98.99890, renormalised to   99.00000

     negative rho (up, down):  3.895E-06 0.000E+00
     Starting wfcs are   81 randomized atomic wfcs

     total cpu time spent up to now is        0.7 secs

     Self-consistent Calculation

     iteration #  1     ecut=    30.00 Ry     beta= 0.30
     Davidson diagonalization with overlap
     ethr =  1.00E-02,  avg # of iterations =  3.5

     Threshold (ethr) on eigenvalues was too large:
     Diagonalizing with lowered threshold

     Davidson diagonalization with overlap
     ethr =  5.26E-04,  avg # of iterations =  1.4

     negative rho (up, down):  1.296E-06 0.000E+00

     total cpu time spent up to now is        2.0 secs

     total energy              =   -1034.65340690 Ry
     estimated scf accuracy    <       0.56796492 Ry

     iteration #  2     ecut=    30.00 Ry     beta= 0.30
     Davidson diagonalization with overlap
     ethr =  5.74E-04,  avg # of iterations =  1.1

     negative rho (up, down):  2.424E-06 0.000E+00

     total cpu time spent up to now is        2.7 secs

     total energy              =   -1034.61255491 Ry
     estimated scf accuracy    <       0.29840233 Ry

     iteration #  3     ecut=    30.00 Ry     beta= 0.30
     Davidson diagonalization with overlap
     ethr =  3.01E-04,  avg # of iterations =  7.5

     negative rho (up, down):  7.035E-06 0.000E+00

     total cpu time spent up to now is        3.8 secs

     total energy              =   -1034.32373083 Ry
     estimated scf accuracy    <      19.11975670 Ry

     iteration #  4     ecut=    30.00 Ry     beta= 0.30
     Davidson diagonalization with overlap
     ethr =  3.01E-04,  avg # of iterations =  7.2

     negative rho (up, down):  6.479E-06 0.000E+00

     total cpu time spent up to now is        4.7 secs

     total energy              =   -1034.66704420 Ry
     estimated scf accuracy    <       0.52416208 Ry

     iteration #  5     ecut=    30.00 Ry     beta= 0.30
     Davidson diagonalization with overlap
     ethr =  3.01E-04,  avg # of iterations =  2.0

     negative rho (up, down):  6.673E-06 0.000E+00

     total cpu time spent up to now is        5.5 secs

     total energy              =   -1034.69283957 Ry
     estimated scf accuracy    <       0.26656193 Ry

     iteration #  6     ecut=    30.00 Ry     beta= 0.30
     Davidson diagonalization with overlap
     ethr =  2.69E-04,  avg # of iterations =  3.5

     negative rho (up, down):  7.085E-06 0.000E+00

     total cpu time spent up to now is        6.2 secs

     total energy              =   -1034.67584824 Ry
     estimated scf accuracy    <       3.35086337 Ry

     iteration #  7     ecut=    30.00 Ry     beta= 0.30
     Davidson diagonalization with overlap
     ethr =  2.69E-04,  avg # of iterations =  1.4

     negative rho (up, down):  6.806E-06 0.000E+00

     total cpu time spent up to now is        6.9 secs

     total energy              =   -1034.70268932 Ry
     estimated scf accuracy    <       0.00975525 Ry

     iteration #  8     ecut=    30.00 Ry     beta= 0.30
     Davidson diagonalization with overlap
     ethr =  9.85E-06,  avg # of iterations =  7.9

     negative rho (up, down):  6.818E-06 0.000E+00

     total cpu time spent up to now is        7.9 secs

     total energy              =   -1034.70160529 Ry
     estimated scf accuracy    <       0.04730014 Ry

     iteration #  9     ecut=    30.00 Ry     beta= 0.30
     Davidson diagonalization with overlap
     ethr =  9.85E-06,  avg # of iterations =  2.9

     negative rho (up, down):  6.495E-06 0.000E+00

     total cpu time spent up to now is        8.7 secs

     total energy              =   -1034.70323271 Ry
     estimated scf accuracy    <       0.01342108 Ry

     iteration # 10     ecut=    30.00 Ry     beta= 0.30
     Davidson diagonalization with overlap
     ethr =  9.85E-06,  avg # of iterations =  1.1

     negative rho (up, down):  6.501E-06 0.000E+00

     total cpu time spent up to now is        9.3 secs

     total energy              =   -1034.70341622 Ry
     estimated scf accuracy    <       0.00130044 Ry

     iteration # 11     ecut=    30.00 Ry     beta= 0.30
     Davidson diagonalization with overlap
     ethr =  1.31E-06,  avg # of iterations =  1.6

     negative rho (up, down):  6.596E-06 0.000E+00

     total cpu time spent up to now is       10.0 secs

     total energy              =   -1034.70349065 Ry
     estimated scf accuracy    <       0.00074666 Ry

     iteration # 12     ecut=    30.00 Ry     beta= 0.30
     Davidson diagonalization with overlap
     ethr =  7.54E-07,  avg # of iterations =  1.1

     negative rho (up, down):  6.671E-06 0.000E+00

     total cpu time spent up to now is       10.7 secs

     total energy              =   -1034.70355719 Ry
     estimated scf accuracy    <       0.00002023 Ry

     iteration # 13     ecut=    30.00 Ry     beta= 0.30
     Davidson diagonalization with overlap
     ethr =  2.04E-08,  avg # of iterations =  2.0

     negative rho (up, down):  6.709E-06 0.000E+00

     total cpu time spent up to now is       11.5 secs

     total energy              =   -1034.70355785 Ry
     estimated scf accuracy    <       0.00018455 Ry

     iteration # 14     ecut=    30.00 Ry     beta= 0.30
     Davidson diagonalization with overlap
     ethr =  2.04E-08,  avg # of iterations =  1.0

     negative rho (up, down):  6.740E-06 0.000E+00

     total cpu time spent up to now is       12.1 secs

     total energy              =   -1034.70356160 Ry
     estimated scf accuracy    <       0.00000804 Ry

     iteration # 15     ecut=    30.00 Ry     beta= 0.30
     Davidson diagonalization with overlap
     ethr =  8.12E-09,  avg # of iterations =  1.0

     negative rho (up, down):  6.760E-06 0.000E+00

     total cpu time spent up to now is       12.8 secs

     total energy              =   -1034.70356192 Ry
     estimated scf accuracy    <       0.00000235 Ry

     iteration # 16     ecut=    30.00 Ry     beta= 0.30
     Davidson diagonalization with overlap
     ethr =  2.37E-09,  avg # of iterations =  1.4

     negative rho (up, down):  6.774E-06 0.000E+00

     total cpu time spent up to now is       13.5 secs

     total energy              =   -1034.70356178 Ry
     estimated scf accuracy    <       0.00002456 Ry

     iteration # 17     ecut=    30.00 Ry     beta= 0.30
     Davidson diagonalization with overlap
     ethr =  2.37E-09,  avg # of iterations =  1.0

     negative rho (up, down):  6.786E-06 0.000E+00

     total cpu time spent up to now is       14.1 secs

     total energy              =   -1034.70356218 Ry
     estimated scf accuracy    <       0.00001442 Ry

     iteration # 18     ecut=    30.00 Ry     beta= 0.30
     Davidson diagonalization with overlap
     ethr =  2.37E-09,  avg # of iterations =  1.0

     negative rho (up, down):  6.808E-06 0.000E+00

     total cpu time spent up to now is       14.8 secs

     End of self-consistent calculation

          k = 0.0000 0.0000 0.0000 (  4425 PWs)   bands (ev):

    -1.0268  -0.7132  -0.3278   0.2274   0.7448   1.1766   1.2860   1.4557
     1.4761   2.5502   2.6692   3.1069   3.2672   3.4599   3.6860   3.7604
     3.7861   3.8504   3.8578   3.8864   3.9361   3.9692   3.9861   4.0014
     4.0023   4.0072   4.0089   4.0550   4.0678   4.2138   4.2552   4.3228
     4.3644   4.4629   4.5273   4.7182   4.9837   4.9923   5.1848   5.2985
     5.3659   5.3833   5.4048   5.4811   5.5218   5.5834   5.5947   5.6698
     5.6896   6.0747   6.2159   6.3873   6.4849   7.7862   8.0661  11.8851
    12.6669  12.8222  14.1556  14.4564

     occupation numbers 
     1.0000   1.0000   1.0000   1.0000   1.0000   1.0000   1.0000   1.0000
     1.0000   1.0000   1.0000   1.0000   1.0000   1.0000   1.0000   1.0000
     1.0000   1.0000   1.0000   1.0000   1.0000   1.0000   1.0000   1.0000
     1.0000   1.0000   1.0000   1.0000   1.0000   1.0000   1.0000   1.0000
     1.0000   1.0000   1.0000   1.0000   1.0000   1.0000   1.0000   1.0000
     1.0000   1.0000   1.0000   1.0000   1.0000   1.0000   1.0000   1.0000
     1.0000   1.0000   1.0000   1.0000   1.0000   1.0000   0.9361   0.0000
     0.0000   0.0000   0.0000   0.0000

          k = 0.0000 0.2887 0.0000 (  4464 PWs)   bands (ev):

     0.5212   0.7793   1.1233   1.4836   1.8762   2.2513   2.3668   2.3981
     2.4820   2.6583   2.6939   2.7667   2.8909   3.0125   3.1235   3.2131
     3.2620   3.3538   3.5170   3.6160   3.6415   3.8138   3.9045   4.0915
     4.1024   4.2380   4.2945   4.5367   4.6824   4.7700   4.8414   4.8731
     4.9064   4.9413   4.9705   4.9968   5.0166   5.0298   5.1122   5.1455
     5.1901   5.2440   5.2577   5.3397   5.4892   5.4991   5.5793   5.7111
     5.9523   6.3746   7.0465   7.5696   8.8074  10.0740  11.3393  12.7569
    13.8657  14.1302  15.3936  15.5711

     occupation numbers 
     1.0000   1.0000   1.0000   1.0000   1.0000   1.0000   1.0000   1.0000
     1.0000   1.0000   1.0000   1.0000   1.0000   1.0000   1.0000   1.0000
     1.0000   1.0000   1.0000   1.0000   1.0000   1.0000   1.0000   1.0000
     1.0000   1.0000   1.0000   1.0000   1.0000   1.0000   1.0000   1.0000
     1.0000   1.0000   1.0000   1.0000   1.0000   1.0000   1.0000   1.0000
     1.0000   1.0000   1.0000   1.0000   1.0000   1.0000   1.0000   1.0000
     1.0000   1.0000   1.0000   1.0000   0.0000   0.0000   0.0000   0.0000
     0.0000   0.0000   0.0000   0.0000

          k = 0.0000-0.5774 0.0000 (  4488 PWs)   bands (ev):

     1.3046   1.5526   1.5743   1.7703   1.8748   1.9304   2.0433   2.1364
     2.1631   2.3247   2.3436   2.3727   2.5765   2.6554   2.7177   2.8171
     3.0584   3.1493   3.7056   3.8549   4.3370   4.4000   4.7206   4.7774
     4.8748   5.0554   5.0712   5.1700   5.1704   5.3961   5.4581   5.6468
     5.9431   5.9930   6.1308   6.1338   6.2297   6.2311   6.2376   6.2500
     6.2628   6.2776   6.3702   6.4358   6.6766   7.7464   8.2327   8.6950
     8.8445   8.9132   9.1728   9.1729   9.4698   9.5264  10.7589  11.1020
    11.5892  11.7206  12.6828  13.2683

     occupation numbers 
     1.0000   1.0000   1.0000   1.0000   1.0000   1.0000   1.0000   1.0000
     1.0000   1.0000   1.0000   1.0000   1.0000   1.0000   1.0000   1.0000
     1.0000   1.0000   1.0000   1.0000   1.0000   1.0000   1.0000   1.0000
     1.0000   1.0000   1.0000   1.0000   1.0000   1.0000   1.0000   1.0000
     1.0000   1.0000   1.0000   1.0000   1.0000   1.0000   1.0000   1.0000
     1.0000   1.0000   1.0000   1.0000   1.0000   1.0000   0.0000   0.0000
     0.0000   0.0000   0.0000   0.0000   0.0000   0.0000   0.0000   0.0000
     0.0000   0.0000   0.0000   0.0000

          k = 0.2500 0.4330 0.0000 (  4489 PWs)   bands (ev):

     1.8191   1.9038   2.1714   2.2190   2.4346   2.5035   2.5547   2.5747
     2.8473   2.9043   2.9715   3.0224   3.0377   3.0588   3.1370   3.1714
     3.3524   3.3870   3.4402   3.5838   3.6263   3.7345   3.8744   4.0098
     4.0504   4.1649   4.2336   4.3746   4.4423   4.5960   4.6131   4.7380
     5.0854   5.1708   5.1852   5.2360   5.2960   5.4188   5.6511   5.9264
     6.1238   6.1587   6.3275   6.5136   6.5751   7.8409   7.9607   8.0886
     8.3932   8.8625   9.5635  10.3691  11.3783  12.3675  12.9232  13.3233
    13.6281  13.8145  13.9003  13.9224

     occupation numbers 
     1.0000   1.0000   1.0000   1.0000   1.0000   1.0000   1.0000   1.0000
     1.0000   1.0000   1.0000   1.0000   1.0000   1.0000   1.0000   1.0000
     1.0000   1.0000   1.0000   1.0000   1.0000   1.0000   1.0000   1.0000
     1.0000   1.0000   1.0000   1.0000   1.0000   1.0000   1.0000   1.0000
     1.0000   1.0000   1.0000   1.0000   1.0000   1.0000   1.0000   1.0000
     1.0000   1.0000   1.0000   1.0000   1.0000   1.0000   1.0000   0.7718
     0.0000   0.0000   0.0000   0.0000   0.0000   0.0000   0.0000   0.0000
     0.0000   0.0000   0.0000   0.0000

          k =-0.2500 0.1443 0.0000 (  4464 PWs)   bands (ev):

     0.5252   0.7662   1.1627   1.4580   1.8659   2.2167   2.3655   2.4279
     2.4849   2.6054   2.6469   2.7332   2.9193   3.0359   3.1738   3.2583
     3.3361   3.3581   3.4721   3.5457   3.7569   3.8732   3.9100   4.1095
     4.1461   4.2695   4.2823   4.5884   4.6327   4.6695   4.7489   4.7735
     4.8010   4.9070   4.9495   4.9855   5.0150   5.0242   5.0931   5.1345
     5.1517   5.2846   5.3240   5.4431   5.5127   5.5792   5.6960   5.7687
     5.8708   6.2904   7.0793   7.4718   8.8420  10.1092  11.3531  12.7488
    13.8582  14.0927  15.3857  15.5220

     occupation numbers 
     1.0000   1.0000   1.0000   1.0000   1.0000   1.0000   1.0000   1.0000
     1.0000   1.0000   1.0000   1.0000   1.0000   1.0000   1.0000   1.0000
     1.0000   1.0000   1.0000   1.0000   1.0000   1.0000   1.0000   1.0000
     1.0000   1.0000   1.0000   1.0000   1.0000   1.0000   1.0000   1.0000
     1.0000   1.0000   1.0000   1.0000   1.0000   1.0000   1.0000   1.0000
     1.0000   1.0000   1.0000   1.0000   1.0000   1.0000   1.0000   1.0000
     1.0000   1.0000   1.0000   1.0000   0.0000   0.0000   0.0000   0.0000
     0.0000   0.0000   0.0000   0.0000

          k = 0.2500 0.1443 0.0000 (  4464 PWs)   bands (ev):

     0.4338   0.7249   1.0336   1.5437   1.8679   2.0972   2.1459   2.2543
     2.2727   2.5666   2.6861   2.8932   2.9482   3.1849   3.3105   3.4097
     3.4904   3.5435   3.5966   3.8053   3.8674   3.9323   4.1118   4.1398
     4.2128   4.2444   4.3153   4.3923   4.4661   4.6070   4.7110   4.7686
     4.7920   4.8326   4.8484   4.8882   5.0279   5.0393   5.1124   5.1274
     5.2205   5.2900   5.3261   5.3894   5.4518   5.6544   5.8974   6.0056
     6.2208   6.2850   6.4969   7.3487   8.4408   9.7821  10.9501  12.7157
    13.9564  14.0935  15.4598  15.7450

     occupation numbers 
     1.0000   1.0000   1.0000   1.0000   1.0000   1.0000   1.0000   1.0000
     1.0000   1.0000   1.0000   1.0000   1.0000   1.0000   1.0000   1.0000
     1.0000   1.0000   1.0000   1.0000   1.0000   1.0000   1.0000   1.0000
     1.0000   1.0000   1.0000   1.0000   1.0000   1.0000   1.0000   1.0000
     1.0000   1.0000   1.0000   1.0000   1.0000   1.0000   1.0000   1.0000
     1.0000   1.0000   1.0000   1.0000   1.0000   1.0000   1.0000   1.0000
     1.0000   1.0000   1.0000   1.0000   0.0000   0.0000   0.0000   0.0000
     0.0000   0.0000   0.0000   0.0000

          k = 0.5000-0.2887 0.0000 (  4488 PWs)   bands (ev):

     1.3472   1.5085   1.5932   1.7389   1.8905   1.9881   2.0749   2.0928
     2.1403   2.2130   2.2214   2.2587   2.5100   2.6814   3.0058   3.0679
     3.1080   3.2903   3.5928   3.7428   4.4239   4.4516   4.4790   4.5745
     4.8533   4.9906   5.0016   5.1619   5.2492   5.4801   5.6044   5.8042
     5.9106   6.0093   6.1172   6.1570   6.1837   6.2050   6.2443   6.2624
     6.2721   6.2832   6.3750   6.3800   6.6524   7.8781   8.2651   8.5934
     8.7408   8.7707   9.0078   9.0105  10.0373  10.1439  10.3672  10.6287
    11.6221  11.6427  13.0980  13.4566

     occupation numbers 
     1.0000   1.0000   1.0000   1.0000   1.0000   1.0000   1.0000   1.0000
     1.0000   1.0000   1.0000   1.0000   1.0000   1.0000   1.0000   1.0000
     1.0000   1.0000   1.0000   1.0000   1.0000   1.0000   1.0000   1.0000
     1.0000   1.0000   1.0000   1.0000   1.0000   1.0000   1.0000   1.0000
     1.0000   1.0000   1.0000   1.0000   1.0000   1.0000   1.0000   1.0000
     1.0000   1.0000   1.0000   1.0000   1.0000   1.0000   0.0000   0.0000
     0.0000   0.0000   0.0000   0.0000   0.0000   0.0000   0.0000   0.0000
     0.0000   0.0000   0.0000   0.0000

          k =-0.5000-0.2887 0.0000 (  4488 PWs)   bands (ev):

     1.2499   1.4570   1.4737   1.7549   1.7947   1.9517   1.9568   1.9708
     2.0903   2.1437   2.2392   2.2862   2.5871   2.7935   2.9173   3.3780
     3.5533   3.6934   3.8153   3.9590   3.9770   4.1099   4.3294   4.5247
     4.7213   4.8655   4.8910   5.2456   5.2921   5.5132   5.6754   5.9119
     5.9982   6.0984   6.1212   6.1845   6.2095   6.2621   6.2679   6.2759
     6.2878   6.3146   6.3651   6.3662   6.5350   7.6835   7.9422   8.1726
     9.1517   9.4931   9.5721   9.8977  10.0882  10.1699  10.3219  10.5897
    10.8598  11.9247  11.9434  12.6739

     occupation numbers 
     1.0000   1.0000   1.0000   1.0000   1.0000   1.0000   1.0000   1.0000
     1.0000   1.0000   1.0000   1.0000   1.0000   1.0000   1.0000   1.0000
     1.0000   1.0000   1.0000   1.0000   1.0000   1.0000   1.0000   1.0000
     1.0000   1.0000   1.0000   1.0000   1.0000   1.0000   1.0000   1.0000
     1.0000   1.0000   1.0000   1.0000   1.0000   1.0000   1.0000   1.0000
     1.0000   1.0000   1.0000   1.0000   1.0000   1.0000   1.0000   0.0152
     0.0000   0.0000   0.0000   0.0000   0.0000   0.0000   0.0000   0.0000
     0.0000   0.0000   0.0000   0.0000

          k =-0.2500 0.4330 0.0000 (  4489 PWs)   bands (ev):

     1.7354   1.9652   1.9995   2.1893   2.3297   2.3828   2.5855   2.6149
     2.8845   2.9748   2.9853   3.0259   3.0713   3.1219   3.1868   3.2709
     3.3415   3.4626   3.5809   3.6295   3.6770   3.7253   3.9312   4.0265
     4.1215   4.1714   4.2126   4.2862   4.3628   4.5499   4.7054   4.8136
     4.9882   5.0305   5.1974   5.2465   5.3420   5.4451   5.7932   5.9197
     5.9806   6.1112   6.1797   6.4536   6.5962   7.7465   7.8810   8.0835
     8.3919   8.9951   9.8336  10.3718  11.3969  12.0954  12.5950  12.9098
    13.2139  13.4991  13.9070  14.2274

     occupation numbers 
     1.0000   1.0000   1.0000   1.0000   1.0000   1.0000   1.0000   1.0000
     1.0000   1.0000   1.0000   1.0000   1.0000   1.0000   1.0000   1.0000
     1.0000   1.0000   1.0000   1.0000   1.0000   1.0000   1.0000   1.0000
     1.0000   1.0000   1.0000   1.0000   1.0000   1.0000   1.0000   1.0000
     1.0000   1.0000   1.0000   1.0000   1.0000   1.0000   1.0000   1.0000
     1.0000   1.0000   1.0000   1.0000   1.0000   1.0000   1.0000   0.8219
     0.0000   0.0000   0.0000   0.0000   0.0000   0.0000   0.0000   0.0000
     0.0000   0.0000   0.0000   0.0000

          k = 0.5000 0.0000 0.0000 (  4489 PWs)   bands (ev):

     1.8093   1.9525   2.0492   2.2241   2.4597   2.5508   2.5701   2.6097
     2.8411   2.8982   2.9368   2.9872   3.0226   3.0565   3.1197   3.2223
     3.2958   3.4397   3.4473   3.6213   3.6355   3.7947   3.8901   3.9543
     4.1085   4.1664   4.2219   4.3468   4.4378   4.5450   4.6306   4.7326
     4.9821   5.1352   5.1881   5.2779   5.3676   5.4204   5.6433   5.9533
     6.1388   6.2418   6.2774   6.4718   6.5761   7.8363   7.9622   8.1151
     8.3598   8.8473   9.5928  10.2970  11.4024  12.4104  13.0581  13.2977
    13.4735  13.5536  13.7246  14.1549

     occupation numbers 
     1.0000   1.0000   1.0000   1.0000   1.0000   1.0000   1.0000   1.0000
     1.0000   1.0000   1.0000   1.0000   1.0000   1.0000   1.0000   1.0000
     1.0000   1.0000   1.0000   1.0000   1.0000   1.0000   1.0000   1.0000
     1.0000   1.0000   1.0000   1.0000   1.0000   1.0000   1.0000   1.0000
     1.0000   1.0000   1.0000   1.0000   1.0000   1.0000   1.0000   1.0000
     1.0000   1.0000   1.0000   1.0000   1.0000   1.0000   1.0000   0.4307
     0.0000   0.0000   0.0000   0.0000   0.0000   0.0000   0.0000   0.0000
     0.0000   0.0000   0.0000   0.0000

     the Fermi energy is     8.1101 ev

!    total energy              =   -1034.70356211 Ry
     estimated scf accuracy    <       0.00000032 Ry
     smearing contrib. (-TS)   =      -0.00055028 Ry
     internal energy E=F+TS    =   -1034.70301183 Ry

     The total energy is F=E-TS. E is the sum of the following terms:
     one-electron contribution =   -4555.40204983 Ry
     hartree contribution      =    2375.40782339 Ry
     xc contribution           =    -560.03111305 Ry
     ewald contribution        =    1705.32232765 Ry

     convergence has been achieved in  18 iterations

     negative rho (up, down):  6.808E-06 0.000E+00

     Forces acting on atoms (cartesian axes, Ry/au):

     atom    1 type  1   force =    -0.01561099   -0.01394146   -0.05493194
     atom    2 type  1   force =    -0.01750137   -0.01357228   -0.05336297
     atom    3 type  1   force =    -0.00533399    0.00256705    0.01452014
     atom    4 type  1   force =     0.00534085   -0.00258252   -0.01492103
     atom    5 type  1   force =     0.01751758    0.01358020    0.05333007
     atom    6 type  1   force =     0.01561376    0.01394021    0.05541240
     atom    7 type  1   force =    -0.00169347    0.00088385    0.00892838
     atom    8 type  1   force =    -0.00001268   -0.00000341   -0.00024951
     atom    9 type  1   force =     0.00168030   -0.00087165   -0.00872553
     The non-local contrib.  to forces
     atom    1 type  1   force =     0.00272516    0.00132856   -0.00125460
     atom    2 type  1   force =    -0.00213861   -0.00280388   -0.02584075
     atom    3 type  1   force =    -0.00309645    0.00127583   -0.03143065
     atom    4 type  1   force =     0.00311403   -0.00128381    0.03123827
     atom    5 type  1   force =     0.00215422    0.00281225    0.02602634
     atom    6 type  1   force =    -0.00272690   -0.00133016    0.00181031
     atom    7 type  1   force =    -0.00165193    0.00047061   -0.02382527
     atom    8 type  1   force =    -0.00000780    0.00000076   -0.00009525
     atom    9 type  1   force =     0.00165198   -0.00045938    0.02425259
     The ionic contribution  to forces
     atom    1 type  1   force =    -0.49785119   -0.34432983  -71.95697405
     atom    2 type  1   force =    -0.49785118   -0.34432982   35.09506220
     atom    3 type  1   force =    -0.15580666    0.05816906  142.40527444
     atom    4 type  1   force =     0.15581212   -0.05817458 -142.40534577
     atom    5 type  1   force =     0.49785664    0.34432429  -35.09513351
     atom    6 type  1   force =     0.49785664    0.34432430   71.95690273
     atom    7 type  1   force =    -0.00043439    0.00016256 -107.05107256
     atom    8 type  1   force =    -0.00000546    0.00000553    0.00007131
     atom    9 type  1   force =     0.00042348   -0.00015151  107.05121520
     The local contribution  to forces
     atom    1 type  1   force =     0.47237708    0.32399027   71.89591792
     atom    2 type  1   force =     0.47771432    0.33055964  -35.12652216
     atom    3 type  1   force =     0.15317326   -0.05691336 -142.33559880
     atom    4 type  1   force =    -0.15318154    0.05692428  142.33650473
     atom    5 type  1   force =    -0.47770287   -0.33054845   35.12685645
     atom    6 type  1   force =    -0.47239417   -0.32399843  -71.89840632
     atom    7 type  1   force =     0.00037353    0.00036346  107.08355186
     atom    8 type  1   force =     0.00000890   -0.00000624    0.00095527
     atom    9 type  1   force =    -0.00036172   -0.00037989 -107.08492447
     The core correction contribution to forces
     atom    1 type  1   force =     0.00714824    0.00507520    0.00728338
     atom    2 type  1   force =     0.00479876    0.00302404    0.00354449
     atom    3 type  1   force =     0.00040148    0.00004173   -0.02250160
     atom    4 type  1   force =    -0.00040690   -0.00004361    0.02251363
     atom    5 type  1   force =    -0.00479503   -0.00302136   -0.00358804
     atom    6 type  1   force =    -0.00714837   -0.00508000   -0.00732854
     atom    7 type  1   force =     0.00003438   -0.00011653   -0.00025809
     atom    8 type  1   force =     0.00000164    0.00000171   -0.00000679
     atom    9 type  1   force =    -0.00003918    0.00011772    0.00022854
     The Hubbard contrib.    to forces
     atom    1 type  1   force =     0.00000000    0.00000000    0.00000000
     atom    2 type  1   force =     0.00000000    0.00000000    0.00000000
     atom    3 type  1   force =     0.00000000    0.00000000    0.00000000
     atom    4 type  1   force =     0.00000000    0.00000000    0.00000000
     atom    5 type  1   force =     0.00000000    0.00000000    0.00000000
     atom    6 type  1   force =     0.00000000    0.00000000    0.00000000
     atom    7 type  1   force =     0.00000000    0.00000000    0.00000000
     atom    8 type  1   force =     0.00000000    0.00000000    0.00000000
     atom    9 type  1   force =     0.00000000    0.00000000    0.00000000
     The SCF correction term to forces
     atom    1 type  1   force =    -0.00000725   -0.00000275    0.00016683
     atom    2 type  1   force =    -0.00002163   -0.00001934    0.00046468
     atom    3 type  1   force =    -0.00000258   -0.00000329   -0.00115182
     atom    4 type  1   force =     0.00000617   -0.00000188    0.00023952
     atom    5 type  1   force =     0.00000765    0.00001639   -0.00075975
     atom    6 type  1   force =     0.00002960    0.00002743    0.00250564
     atom    7 type  1   force =    -0.00001202    0.00000667    0.00060385
     atom    8 type  1   force =    -0.00000692   -0.00000225   -0.00110263
     atom    9 type  1   force =     0.00000878    0.00000433    0.00057404

     Total force =     0.119602     Total SCF correction =     0.003224


     Computing stress (Cartesian axis) and pressure


     negative rho (up, down):  6.808E-06 0.000E+00
          total   stress  (Ry/bohr**3)                   (kbar)     P=       13.09
  -0.00016399  -0.00002748  -0.00001538          -24.12       -4.04       -2.26
  -0.00002748  -0.00006791   0.00012468           -4.04       -9.99       18.34
  -0.00001538   0.00012468   0.00049889           -2.26       18.34       73.39

     kinetic stress (kbar)  13787.08     20.36      2.01
                               20.36  13777.98    -24.33
                                2.01    -24.33  13817.04

     local   stress (kbar)-404668.38    645.32    142.22
                              645.32-405473.00   -607.64
                              142.22   -607.64 438595.34

     nonloc. stress (kbar)  -8690.71     -0.40     -0.95
                               -0.40  -8687.80     -0.33
                               -0.95     -0.33  -8665.86

     hartree stress (kbar) 211607.58   -200.82    -41.90
                             -200.82 211860.07    168.39
                              -41.90    168.39-206489.80

     exc-cor stress (kbar)  35646.03     -0.90     -0.34
                               -0.90  35647.44      1.28
                               -0.34      1.28  35647.20

     corecor stress (kbar) -41145.23     -1.78     -0.13
                               -1.78 -41145.22      1.63
                               -0.13      1.63 -41150.44

     ewald   stress (kbar) 193439.51   -465.82   -103.18
                             -465.82 194010.55    479.34
                             -103.18    479.34-231680.10

     hubbard stress (kbar)      0.00      0.00      0.00
                                0.00      0.00      0.00
                                0.00      0.00      0.00

     DFT-D   stress (kbar)      0.00      0.00      0.00
                                0.00      0.00      0.00
                                0.00      0.00      0.00

     XDM     stress (kbar)      0.00      0.00      0.00
                                0.00      0.00      0.00
                                0.00      0.00      0.00

     dft-nl  stress (kbar)      0.00      0.00      0.00
                                0.00      0.00      0.00
                                0.00      0.00      0.00

     TS-vdW  stress (kbar)      0.00      0.00      0.00
                                0.00      0.00      0.00
                                0.00      0.00      0.00



     BFGS Geometry Optimization
     Energy error            =      0.0E+00
     Gradient error          =      5.5E-02

     number of scf cycles    =   1
     number of bfgs steps    =   0

     energy   new            =   -1034.7035621090 Ry

     new trust radius        =       0.0592338854 bohr
     new conv_thr            =       0.0000010000 Ry


ATOMIC_POSITIONS (angstrom)
Au            0.9749210178        1.9589904946        4.7875202694
Au            0.9739206758        1.9591858572       12.0132305319
Au            0.9803593766        1.9677264268       19.2740327266
Au            0.0028262560       -0.0013666109       -0.0078958714
Au            0.0092699031        0.0071863328        7.2531010579
Au            0.0082624463        0.0073768431       14.4790829795
Au            1.9654718548        0.9836497156        2.4130156930
Au            1.9663612919        0.9831801979        9.6330389648
Au            1.9672571778        0.9827207428       16.8534336483



     Writing output data file ./surface.save/
     NEW-OLD atomic charge density approx. for the potential

     Check: negative core charge=   -0.000002

     negative rho (up, down):  6.700E-06 0.000E+00

     total cpu time spent up to now is       16.7 secs

     Self-consistent Calculation

     iteration #  1     ecut=    30.00 Ry     beta= 0.30
     Davidson diagonalization with overlap
     ethr =  1.00E-06,  avg # of iterations = 11.1

     negative rho (up, down):  6.658E-06 0.000E+00

     total cpu time spent up to now is       19.1 secs

     total energy              =   -1034.71393606 Ry
     estimated scf accuracy    <       0.00070500 Ry

     iteration #  2     ecut=    30.00 Ry     beta= 0.30
     Davidson diagonalization with overlap
     ethr =  7.12E-07,  avg # of iterations =  7.3

     negative rho (up, down):  6.803E-06 0.000E+00

     total cpu time spent up to now is       20.1 secs

     total energy              =   -1034.71028015 Ry
     estimated scf accuracy    <       0.50937263 Ry

     iteration #  3     ecut=    30.00 Ry     beta= 0.30
     Davidson diagonalization with overlap
     ethr =  7.12E-07,  avg # of iterations =  8.3

     negative rho (up, down):  7.002E-06 0.000E+00

     total cpu time spent up to now is       21.1 secs

     total energy              =   -1034.71395499 Ry
     estimated scf accuracy    <       0.00879720 Ry

     iteration #  4     ecut=    30.00 Ry     beta= 0.30
     Davidson diagonalization with overlap
     ethr =  7.12E-07,  avg # of iterations =  2.3

     negative rho (up, down):  7.172E-06 0.000E+00

     total cpu time spent up to now is       21.9 secs

     total energy              =   -1034.71410519 Ry
     estimated scf accuracy    <       0.00376096 Ry

     iteration #  5     ecut=    30.00 Ry     beta= 0.30
     Davidson diagonalization with overlap
     ethr =  7.12E-07,  avg # of iterations =  1.0

     negative rho (up, down):  6.882E-06 0.000E+00

     total cpu time spent up to now is       22.5 secs

     total energy              =   -1034.71417586 Ry
     estimated scf accuracy    <       0.00067923 Ry

     iteration #  6     ecut=    30.00 Ry     beta= 0.30
     Davidson diagonalization with overlap
     ethr =  6.86E-07,  avg # of iterations =  1.0

     negative rho (up, down):  6.785E-06 0.000E+00

     total cpu time spent up to now is       23.1 secs

     total energy              =   -1034.71418458 Ry
     estimated scf accuracy    <       0.00017589 Ry

     iteration #  7     ecut=    30.00 Ry     beta= 0.30
     Davidson diagonalization with overlap
     ethr =  1.78E-07,  avg # of iterations =  1.0

     negative rho (up, down):  6.761E-06 0.000E+00

     total cpu time spent up to now is       23.8 secs

     total energy              =   -1034.71419669 Ry
     estimated scf accuracy    <       0.00001835 Ry

     iteration #  8     ecut=    30.00 Ry     beta= 0.30
     Davidson diagonalization with overlap
     ethr =  1.85E-08,  avg # of iterations =  1.4

     negative rho (up, down):  6.770E-06 0.000E+00

     total cpu time spent up to now is       24.5 secs

     total energy              =   -1034.71419712 Ry
     estimated scf accuracy    <       0.00002141 Ry

     iteration #  9     ecut=    30.00 Ry     beta= 0.30
     Davidson diagonalization with overlap
     ethr =  1.85E-08,  avg # of iterations =  1.0

     negative rho (up, down):  6.773E-06 0.000E+00

     total cpu time spent up to now is       25.1 secs

     total energy              =   -1034.71419843 Ry
     estimated scf accuracy    <       0.00001189 Ry

     iteration # 10     ecut=    30.00 Ry     beta= 0.30
     Davidson diagonalization with overlap
     ethr =  1.20E-08,  avg # of iterations =  1.0

     negative rho (up, down):  6.779E-06 0.000E+00

     total cpu time spent up to now is       25.8 secs

     total energy              =   -1034.71419899 Ry
     estimated scf accuracy    <       0.00000264 Ry

     iteration # 11     ecut=    30.00 Ry     beta= 0.30
     Davidson diagonalization with overlap
     ethr =  2.67E-09,  avg # of iterations =  1.0

     negative rho (up, down):  6.799E-06 0.000E+00

     total cpu time spent up to now is       26.4 secs

     End of self-consistent calculation

          k = 0.0000 0.0000 0.0000 (  4425 PWs)   bands (ev):

    -1.0223  -0.7033  -0.3626   0.2759   0.7619   1.1618   1.2838   1.4465
     1.4615   2.6874   2.7880   3.1196   3.2699   3.4659   3.6831   3.7622
     3.7876   3.8427   3.8782   3.9135   3.9274   3.9774   3.9824   4.0067
     4.0090   4.0112   4.0202   4.0482   4.0518   4.2157   4.2461   4.3511
     4.3665   4.4648   4.5421   4.7004   5.0014   5.0376   5.2134   5.2851
     5.3698   5.3818   5.4060   5.4771   5.5252   5.5455   5.5887   5.6644
     5.6799   6.1111   6.2158   6.3927   6.4799   7.7740   8.0625  11.8465
    12.6546  12.8020  14.1082  14.4713

     occupation numbers 
     1.0000   1.0000   1.0000   1.0000   1.0000   1.0000   1.0000   1.0000
     1.0000   1.0000   1.0000   1.0000   1.0000   1.0000   1.0000   1.0000
     1.0000   1.0000   1.0000   1.0000   1.0000   1.0000   1.0000   1.0000
     1.0000   1.0000   1.0000   1.0000   1.0000   1.0000   1.0000   1.0000
     1.0000   1.0000   1.0000   1.0000   1.0000   1.0000   1.0000   1.0000
     1.0000   1.0000   1.0000   1.0000   1.0000   1.0000   1.0000   1.0000
     1.0000   1.0000   1.0000   1.0000   1.0000   1.0000   0.9133   0.0000
     0.0000   0.0000   0.0000   0.0000

          k = 0.0000 0.2887 0.0000 (  4464 PWs)   bands (ev):

     0.5336   0.8008   1.0890   1.5219   1.9062   2.2446   2.3672   2.4280
     2.4785   2.6859   2.7264   2.8113   2.9532   3.0195   3.1287   3.2094
     3.2818   3.3625   3.5321   3.6301   3.6441   3.8227   3.9117   4.0998
     4.1082   4.2395   4.3018   4.5548   4.7078   4.7607   4.8494   4.8629
     4.9050   4.9581   4.9674   5.0062   5.0198   5.0358   5.1034   5.1290
     5.1780   5.2402   5.2584   5.3450   5.4783   5.5125   5.5752   5.6976
     5.9391   6.3663   7.0320   7.6025   8.7993  10.0607  11.3503  12.7437
    13.8552  14.1226  15.3871  15.5696

     occupation numbers 
     1.0000   1.0000   1.0000   1.0000   1.0000   1.0000   1.0000   1.0000
     1.0000   1.0000   1.0000   1.0000   1.0000   1.0000   1.0000   1.0000
     1.0000   1.0000   1.0000   1.0000   1.0000   1.0000   1.0000   1.0000
     1.0000   1.0000   1.0000   1.0000   1.0000   1.0000   1.0000   1.0000
     1.0000   1.0000   1.0000   1.0000   1.0000   1.0000   1.0000   1.0000
     1.0000   1.0000   1.0000   1.0000   1.0000   1.0000   1.0000   1.0000
     1.0000   1.0000   1.0000   1.0000   0.0000   0.0000   0.0000   0.0000
     0.0000   0.0000   0.0000   0.0000

          k = 0.0000-0.5774 0.0000 (  4488 PWs)   bands (ev):

     1.3285   1.5679   1.6037   1.7901   1.8659   1.9038   2.0715   2.1380
     2.1903   2.3145   2.3287   2.3658   2.6583   2.6799   2.7728   2.8326
     3.0893   3.1733   3.7703   3.8238   4.3909   4.4238   4.6921   4.7679
     4.9091   5.0317   5.0745   5.1416   5.1707   5.4165   5.4396   5.6382
     5.9515   5.9792   6.1274   6.1325   6.2273   6.2290   6.2371   6.2503
     6.2689   6.2740   6.3746   6.4335   6.6508   7.7587   8.2449   8.6968
     8.8631   8.9388   9.1703   9.1704   9.4353   9.4892  10.7629  11.0848
    11.5797  11.7038  12.7343  13.2734

     occupation numbers 
     1.0000   1.0000   1.0000   1.0000   1.0000   1.0000   1.0000   1.0000
     1.0000   1.0000   1.0000   1.0000   1.0000   1.0000   1.0000   1.0000
     1.0000   1.0000   1.0000   1.0000   1.0000   1.0000   1.0000   1.0000
     1.0000   1.0000   1.0000   1.0000   1.0000   1.0000   1.0000   1.0000
     1.0000   1.0000   1.0000   1.0000   1.0000   1.0000   1.0000   1.0000
     1.0000   1.0000   1.0000   1.0000   1.0000   1.0000   0.0000   0.0000
     0.0000   0.0000   0.0000   0.0000   0.0000   0.0000   0.0000   0.0000
     0.0000   0.0000   0.0000   0.0000

          k = 0.2500 0.4330 0.0000 (  4489 PWs)   bands (ev):

     1.8911   1.9900   2.2165   2.2592   2.4030   2.4739   2.5293   2.5477
     2.8584   2.9566   2.9861   3.0159   3.0518   3.0708   3.1302   3.2068
     3.3348   3.4112   3.4389   3.5937   3.6401   3.7480   3.9010   4.0268
     4.0650   4.1716   4.2305   4.3821   4.4530   4.5995   4.6131   4.7449
     5.0579   5.1772   5.1817   5.2163   5.2708   5.4305   5.6597   5.9286
     6.1225   6.1519   6.3378   6.5079   6.5721   7.8408   7.9611   8.0847
     8.4133   8.8707   9.5423  10.3981  11.3728  12.3575  12.9500  13.3554
    13.6295  13.8111  13.8914  13.9168

     occupation numbers 
     1.0000   1.0000   1.0000   1.0000   1.0000   1.0000   1.0000   1.0000
     1.0000   1.0000   1.0000   1.0000   1.0000   1.0000   1.0000   1.0000
     1.0000   1.0000   1.0000   1.0000   1.0000   1.0000   1.0000   1.0000
     1.0000   1.0000   1.0000   1.0000   1.0000   1.0000   1.0000   1.0000
     1.0000   1.0000   1.0000   1.0000   1.0000   1.0000   1.0000   1.0000
     1.0000   1.0000   1.0000   1.0000   1.0000   1.0000   1.0000   0.7224
     0.0000   0.0000   0.0000   0.0000   0.0000   0.0000   0.0000   0.0000
     0.0000   0.0000   0.0000   0.0000

          k =-0.2500 0.1443 0.0000 (  4464 PWs)   bands (ev):

     0.5405   0.7931   1.1263   1.4906   1.8940   2.2141   2.3717   2.4514
     2.5138   2.6048   2.6894   2.7420   2.9510   3.0964   3.2117   3.3066
     3.3379   3.3551   3.4883   3.5468   3.7723   3.8775   3.9019   4.1327
     4.1691   4.2840   4.3061   4.5589   4.6124   4.6484   4.7422   4.7539
     4.7858   4.8923   4.9483   4.9815   5.0190   5.0244   5.0894   5.1327
     5.1422   5.2854   5.3066   5.4477   5.5143   5.5801   5.7162   5.7722
     5.8668   6.2888   7.0654   7.5129   8.8397  10.1027  11.3747  12.7453
    13.8528  14.0880  15.3917  15.5159

     occupation numbers 
     1.0000   1.0000   1.0000   1.0000   1.0000   1.0000   1.0000   1.0000
     1.0000   1.0000   1.0000   1.0000   1.0000   1.0000   1.0000   1.0000
     1.0000   1.0000   1.0000   1.0000   1.0000   1.0000   1.0000   1.0000
     1.0000   1.0000   1.0000   1.0000   1.0000   1.0000   1.0000   1.0000
     1.0000   1.0000   1.0000   1.0000   1.0000   1.0000   1.0000   1.0000
     1.0000   1.0000   1.0000   1.0000   1.0000   1.0000   1.0000   1.0000
     1.0000   1.0000   1.0000   1.0000   0.0000   0.0000   0.0000   0.0000
     0.0000   0.0000   0.0000   0.0000

          k = 0.2500 0.1443 0.0000 (  4464 PWs)   bands (ev):

     0.4431   0.7392   0.9992   1.5911   1.8873   2.0988   2.1534   2.2349
     2.2566   2.6456   2.7363   2.9326   3.0084   3.1932   3.3424   3.4425
     3.4645   3.5380   3.6086   3.7771   3.8577   3.9274   4.1414   4.1571
     4.2123   4.2627   4.3239   4.4057   4.4696   4.6261   4.7282   4.7661
     4.7841   4.8223   4.8515   4.9107   5.0354   5.0495   5.1126   5.1195
     5.2153   5.2870   5.3306   5.3683   5.4317   5.6379   5.9103   6.0288
     6.2249   6.2857   6.4857   7.3710   8.4300   9.7627  10.9524  12.6846
    13.9344  14.0844  15.4245  15.7505

     occupation numbers 
     1.0000   1.0000   1.0000   1.0000   1.0000   1.0000   1.0000   1.0000
     1.0000   1.0000   1.0000   1.0000   1.0000   1.0000   1.0000   1.0000
     1.0000   1.0000   1.0000   1.0000   1.0000   1.0000   1.0000   1.0000
     1.0000   1.0000   1.0000   1.0000   1.0000   1.0000   1.0000   1.0000
     1.0000   1.0000   1.0000   1.0000   1.0000   1.0000   1.0000   1.0000
     1.0000   1.0000   1.0000   1.0000   1.0000   1.0000   1.0000   1.0000
     1.0000   1.0000   1.0000   1.0000   0.0000   0.0000   0.0000   0.0000
     0.0000   0.0000   0.0000   0.0000

          k = 0.5000-0.2887 0.0000 (  4488 PWs)   bands (ev):

     1.3769   1.5203   1.6329   1.7543   1.8692   1.9767   2.0515   2.1094
     2.1531   2.2125   2.2479   2.2632   2.5767   2.7194   3.0651   3.0871
     3.1886   3.2860   3.6938   3.7007   4.3926   4.4300   4.4734   4.5764
     4.8845   4.9625   5.0071   5.1426   5.2497   5.4730   5.6476   5.8052
     5.9112   5.9998   6.1081   6.1403   6.1843   6.2027   6.2332   6.2636
     6.2695   6.2987   6.3800   6.3851   6.6070   7.9055   8.2880   8.5982
     8.7390   8.7685   9.0091   9.0121   9.9971  10.1114  10.3433  10.5643
    11.6108  11.6305  13.1771  13.4780

     occupation numbers 
     1.0000   1.0000   1.0000   1.0000   1.0000   1.0000   1.0000   1.0000
     1.0000   1.0000   1.0000   1.0000   1.0000   1.0000   1.0000   1.0000
     1.0000   1.0000   1.0000   1.0000   1.0000   1.0000   1.0000   1.0000
     1.0000   1.0000   1.0000   1.0000   1.0000   1.0000   1.0000   1.0000
     1.0000   1.0000   1.0000   1.0000   1.0000   1.0000   1.0000   1.0000
     1.0000   1.0000   1.0000   1.0000   1.0000   1.0000   0.0000   0.0000
     0.0000   0.0000   0.0000   0.0000   0.0000   0.0000   0.0000   0.0000
     0.0000   0.0000   0.0000   0.0000

          k =-0.5000-0.2887 0.0000 (  4488 PWs)   bands (ev):

     1.2637   1.4612   1.4886   1.7453   1.8141   1.9454   1.9599   1.9771
     2.1165   2.1453   2.2629   2.2677   2.6439   2.8636   2.9823   3.4219
     3.5357   3.6737   3.8145   3.9665   4.0135   4.1476   4.3188   4.5638
     4.7464   4.8410   4.9111   5.2035   5.2744   5.4768   5.7002   5.9075
     6.0057   6.0868   6.1114   6.1858   6.2165   6.2679   6.2692   6.2853
     6.2967   6.3267   6.3650   6.3662   6.5086   7.7000   7.9408   8.1271
     9.1731   9.4884   9.5646   9.9063  10.0904  10.1713  10.3631  10.6021
    10.8719  11.9424  11.9737  12.7210

     occupation numbers 
     1.0000   1.0000   1.0000   1.0000   1.0000   1.0000   1.0000   1.0000
     1.0000   1.0000   1.0000   1.0000   1.0000   1.0000   1.0000   1.0000
     1.0000   1.0000   1.0000   1.0000   1.0000   1.0000   1.0000   1.0000
     1.0000   1.0000   1.0000   1.0000   1.0000   1.0000   1.0000   1.0000
     1.0000   1.0000   1.0000   1.0000   1.0000   1.0000   1.0000   1.0000
     1.0000   1.0000   1.0000   1.0000   1.0000   1.0000   1.0000   0.1899
     0.0000   0.0000   0.0000   0.0000   0.0000   0.0000   0.0000   0.0000
     0.0000   0.0000   0.0000   0.0000

          k =-0.2500 0.4330 0.0000 (  4489 PWs)   bands (ev):

     1.7808   1.9987   2.0491   2.2280   2.2974   2.3616   2.6271   2.6447
     2.8810   2.9687   2.9844   3.0197   3.0919   3.1438   3.2251   3.3164
     3.3944   3.4674   3.6061   3.6258   3.6735   3.7168   3.9594   4.0412
     4.1348   4.1812   4.2142   4.2959   4.3782   4.5561   4.6952   4.8131
     4.9782   5.0328   5.1790   5.2403   5.3179   5.4218   5.7842   5.9368
     5.9852   6.1113   6.1743   6.4172   6.5552   7.7544   7.8866   8.0740
     8.4120   9.0001   9.8069  10.4009  11.4010  12.1089  12.5937  12.9041
    13.2427  13.4772  13.9167  14.1919

     occupation numbers 
     1.0000   1.0000   1.0000   1.0000   1.0000   1.0000   1.0000   1.0000
     1.0000   1.0000   1.0000   1.0000   1.0000   1.0000   1.0000   1.0000
     1.0000   1.0000   1.0000   1.0000   1.0000   1.0000   1.0000   1.0000
     1.0000   1.0000   1.0000   1.0000   1.0000   1.0000   1.0000   1.0000
     1.0000   1.0000   1.0000   1.0000   1.0000   1.0000   1.0000   1.0000
     1.0000   1.0000   1.0000   1.0000   1.0000   1.0000   1.0000   0.8317
     0.0000   0.0000   0.0000   0.0000   0.0000   0.0000   0.0000   0.0000
     0.0000   0.0000   0.0000   0.0000

          k = 0.5000 0.0000 0.0000 (  4489 PWs)   bands (ev):

     1.8666   2.0070   2.0967   2.2685   2.4193   2.5213   2.5761   2.6042
     2.8381   2.9368   2.9428   3.0107   3.0588   3.0705   3.1246   3.2196
     3.3051   3.4381   3.4631   3.6355   3.6572   3.8169   3.9070   3.9761
     4.1360   4.1762   4.2222   4.3456   4.4449   4.5484   4.6332   4.7331
     4.9555   5.1359   5.1697   5.2708   5.3710   5.4025   5.6384   5.9571
     6.1505   6.2443   6.2794   6.4456   6.5447   7.8436   7.9675   8.1095
     8.3765   8.8542   9.5720  10.3258  11.4006  12.4082  13.0781  13.3119
    13.4719  13.5499  13.7209  14.1308

     occupation numbers 
     1.0000   1.0000   1.0000   1.0000   1.0000   1.0000   1.0000   1.0000
     1.0000   1.0000   1.0000   1.0000   1.0000   1.0000   1.0000   1.0000
     1.0000   1.0000   1.0000   1.0000   1.0000   1.0000   1.0000   1.0000
     1.0000   1.0000   1.0000   1.0000   1.0000   1.0000   1.0000   1.0000
     1.0000   1.0000   1.0000   1.0000   1.0000   1.0000   1.0000   1.0000
     1.0000   1.0000   1.0000   1.0000   1.0000   1.0000   1.0000   0.3943
     0.0000   0.0000   0.0000   0.0000   0.0000   0.0000   0.0000   0.0000
     0.0000   0.0000   0.0000   0.0000

     the Fermi energy is     8.1017 ev

!    total energy              =   -1034.71419897 Ry
     estimated scf accuracy    <       0.00000041 Ry
     smearing contrib. (-TS)   =      -0.00062906 Ry
     internal energy E=F+TS    =   -1034.71356991 Ry

     The total energy is F=E-TS. E is the sum of the following terms:
     one-electron contribution =   -4542.60870325 Ry
     hartree contribution      =    2369.02739411 Ry
     xc contribution           =    -560.01342221 Ry
     ewald contribution        =    1698.88116145 Ry

     convergence has been achieved in  11 iterations

     negative rho (up, down):  6.799E-06 0.000E+00

     Forces acting on atoms (cartesian axes, Ry/au):

     atom    1 type  1   force =    -0.01273816   -0.00819654   -0.02536204
     atom    2 type  1   force =    -0.01438950   -0.00798646   -0.02489374
     atom    3 type  1   force =    -0.00483423    0.00229536    0.01248232
     atom    4 type  1   force =     0.00482342   -0.00228203   -0.01183954
     atom    5 type  1   force =     0.01437212    0.00798691    0.02474481
     atom    6 type  1   force =     0.01275097    0.00817997    0.02491006
     atom    7 type  1   force =     0.00012725    0.00008390    0.00054037
     atom    8 type  1   force =     0.00000152    0.00000347   -0.00002567
     atom    9 type  1   force =    -0.00011340   -0.00008458   -0.00055656
     The non-local contrib.  to forces
     atom    1 type  1   force =     0.00193777    0.00138499   -0.00144847
     atom    2 type  1   force =    -0.00264712   -0.00247197   -0.02492354
     atom    3 type  1   force =    -0.00263397    0.00145449   -0.03025600
     atom    4 type  1   force =     0.00260410   -0.00143372    0.03067371
     atom    5 type  1   force =     0.00259895    0.00246396    0.02463319
     atom    6 type  1   force =    -0.00191153   -0.00137053    0.00105109
     atom    7 type  1   force =    -0.00067682    0.00054236   -0.02357206
     atom    8 type  1   force =     0.00000336    0.00000214   -0.00013392
     atom    9 type  1   force =     0.00067424   -0.00054151    0.02352192
     The ionic contribution  to forces
     atom    1 type  1   force =    -0.46965709   -0.28165973  -70.99481537
     atom    2 type  1   force =    -0.46645055   -0.28389647   36.03484006
     atom    3 type  1   force =    -0.14972930    0.05341958  142.16674305
     atom    4 type  1   force =     0.14961010   -0.05336922 -142.16024719
     atom    5 type  1   force =     0.46675480    0.28408945  -36.03400677
     atom    6 type  1   force =     0.46951798    0.28141051   70.98659163
     atom    7 type  1   force =     0.02162604   -0.01084378 -107.16407479
     atom    8 type  1   force =    -0.00010371    0.00003716    0.00408708
     atom    9 type  1   force =    -0.02156827    0.01081249  107.16088232
     The local contribution  to forces
     atom    1 type  1   force =     0.44831734    0.26798320   70.97106208
     atom    2 type  1   force =     0.45024632    0.27612142  -36.03182686
     atom    3 type  1   force =     0.14698071   -0.05267200 -142.10232133
     atom    4 type  1   force =    -0.14686753    0.05261759  142.09467471
     atom    5 type  1   force =    -0.45051145   -0.27629605   36.03241117
     atom    6 type  1   force =    -0.44819872   -0.26775990  -70.96142961
     atom    7 type  1   force =    -0.02074836    0.01026845  107.18614469
     atom    8 type  1   force =     0.00008810   -0.00003692   -0.00322038
     atom    9 type  1   force =     0.02069439   -0.01023669 -107.18255659
     The core correction contribution to forces
     atom    1 type  1   force =     0.00628223    0.00393543    0.00152341
     atom    2 type  1   force =     0.00404689    0.00210861   -0.00201960
     atom    3 type  1   force =     0.00046260    0.00013771   -0.02199781
     atom    4 type  1   force =    -0.00045744   -0.00014077    0.02195627
     atom    5 type  1   force =    -0.00404951   -0.00211284    0.00202151
     atom    6 type  1   force =    -0.00627854   -0.00393161   -0.00142469
     atom    7 type  1   force =    -0.00004031    0.00010988    0.00181786
     atom    8 type  1   force =     0.00000149    0.00000075   -0.00002524
     atom    9 type  1   force =     0.00002901   -0.00010663   -0.00174789
     The Hubbard contrib.    to forces
     atom    1 type  1   force =     0.00000000    0.00000000    0.00000000
     atom    2 type  1   force =     0.00000000    0.00000000    0.00000000
     atom    3 type  1   force =     0.00000000    0.00000000    0.00000000
     atom    4 type  1   force =     0.00000000    0.00000000    0.00000000
     atom    5 type  1   force =     0.00000000    0.00000000    0.00000000
     atom    6 type  1   force =     0.00000000    0.00000000    0.00000000
     atom    7 type  1   force =     0.00000000    0.00000000    0.00000000
     atom    8 type  1   force =     0.00000000    0.00000000    0.00000000
     atom    9 type  1   force =     0.00000000    0.00000000    0.00000000
     The SCF correction term to forces
     atom    1 type  1   force =     0.00037416    0.00016030   -0.00176105
     atom    2 type  1   force =     0.00040751    0.00015267   -0.00104116
     atom    3 type  1   force =     0.00007829   -0.00004368    0.00023706
     atom    4 type  1   force =    -0.00007326    0.00004482    0.00102562
     atom    5 type  1   force =    -0.00042811   -0.00015689   -0.00039165
     atom    6 type  1   force =    -0.00038567   -0.00016776    0.00004428
     atom    7 type  1   force =    -0.00004075    0.00000772    0.00014732
     atom    8 type  1   force =     0.00000484    0.00000106   -0.00081056
     atom    9 type  1   force =     0.00004979   -0.00001151   -0.00073366

     Total force =     0.062045     Total SCF correction =     0.002725


     Computing stress (Cartesian axis) and pressure


     negative rho (up, down):  6.799E-06 0.000E+00
          total   stress  (Ry/bohr**3)                   (kbar)     P=        8.74
  -0.00016355  -0.00004077  -0.00004653          -24.06       -6.00       -6.85
  -0.00004077  -0.00006793   0.00010036           -6.00       -9.99       14.76
  -0.00004653   0.00010036   0.00040974           -6.85       14.76       60.27

     kinetic stress (kbar)  13784.34     20.81      3.52
                               20.81  13775.23    -23.13
                                3.52    -23.13  13817.84

     local   stress (kbar)-403563.64    678.38    195.80
                              678.38-404362.97   -564.75
                              195.80   -564.75 437543.06

     nonloc. stress (kbar)  -8690.92     -0.15     -0.70
                               -0.15  -8688.36     -0.20
                               -0.70     -0.20  -8667.02

     hartree stress (kbar) 211044.87   -209.55    -55.06
                             -209.55 211295.33    157.70
                              -55.06    157.70-205945.16

     exc-cor stress (kbar)  35646.39     -0.96     -0.45
                               -0.96  35647.79      1.18
                               -0.45      1.18  35647.22

     corecor stress (kbar) -41144.65     -1.67     -0.14
                               -1.67 -41144.72      1.62
                               -0.14      1.62 -41150.00

     ewald   stress (kbar) 192899.55   -492.85   -149.80
                             -492.85 193467.71    442.34
                             -149.80    442.34-231185.67

     hubbard stress (kbar)      0.00      0.00      0.00
                                0.00      0.00      0.00
                                0.00      0.00      0.00

     DFT-D   stress (kbar)      0.00      0.00      0.00
                                0.00      0.00      0.00
                                0.00      0.00      0.00

     XDM     stress (kbar)      0.00      0.00      0.00
                                0.00      0.00      0.00
                                0.00      0.00      0.00

     dft-nl  stress (kbar)      0.00      0.00      0.00
                                0.00      0.00      0.00
                                0.00      0.00      0.00

     TS-vdW  stress (kbar)      0.00      0.00      0.00
                                0.00      0.00      0.00
                                0.00      0.00      0.00


     Energy error            =      1.1E-02
     Gradient error          =      2.5E-02

     number of scf cycles    =   2
     number of bfgs steps    =   1

     energy   old            =   -1034.7035621090 Ry
     energy   new            =   -1034.7141989675 Ry

     CASE: energy  _new < energy  _old

     new trust radius        =       0.0637140823 bohr
     new conv_thr            =       0.0000002536 Ry


ATOMIC_POSITIONS (angstrom)
Au            0.9608205035        1.9497849041        4.7586351831
Au            0.9579967384        1.9502166150       11.9848976484
Au            0.9750281886        1.9702589216       19.2878236201
Au            0.0081461604       -0.0038854266       -0.0210156361
Au            0.0251758785        0.0161563216        7.2812741598
Au            0.0223767050        0.0165647389       14.5075028944
Au            1.9655498622        0.9837691326        2.4138947860
Au            1.9663624800        0.9831837736        9.6330031398
Au            1.9671934835        0.9826010193       16.8525442044



     Writing output data file ./surface.save/
     NEW-OLD atomic charge density approx. for the potential

     Check: negative core charge=   -0.000002

     negative rho (up, down):  6.606E-06 0.000E+00

     total cpu time spent up to now is       28.3 secs

     Self-consistent Calculation

     iteration #  1     ecut=    30.00 Ry     beta= 0.30
     Davidson diagonalization with overlap
     ethr =  1.00E-06,  avg # of iterations = 11.2

     negative rho (up, down):  6.506E-06 0.000E+00

     total cpu time spent up to now is       30.8 secs

     total energy              =   -1034.71784263 Ry
     estimated scf accuracy    <       0.00359125 Ry

     iteration #  2     ecut=    30.00 Ry     beta= 0.30
     Davidson diagonalization with overlap
     ethr =  3.63E-06,  avg # of iterations =  8.3

     negative rho (up, down):  6.818E-06 0.000E+00

     total cpu time spent up to now is       32.0 secs

     total energy              =   -1034.68872691 Ry
     estimated scf accuracy    <       3.51599636 Ry

     iteration #  3     ecut=    30.00 Ry     beta= 0.30
     Davidson diagonalization with overlap
     ethr =  3.63E-06,  avg # of iterations =  8.7

     negative rho (up, down):  7.033E-06 0.000E+00

     total cpu time spent up to now is       33.1 secs

     total energy              =   -1034.71820425 Ry
     estimated scf accuracy    <       0.08826894 Ry

     iteration #  4     ecut=    30.00 Ry     beta= 0.30
     Davidson diagonalization with overlap
     ethr =  3.63E-06,  avg # of iterations =  4.0

     negative rho (up, down):  7.182E-06 0.000E+00

     total cpu time spent up to now is       33.9 secs

     total energy              =   -1034.71939391 Ry
     estimated scf accuracy    <       0.00276775 Ry

     iteration #  5     ecut=    30.00 Ry     beta= 0.30
     Davidson diagonalization with overlap
     ethr =  2.80E-06,  avg # of iterations =  1.5

     negative rho (up, down):  6.871E-06 0.000E+00

     total cpu time spent up to now is       34.6 secs

     total energy              =   -1034.71943553 Ry
     estimated scf accuracy    <       0.00115791 Ry

     iteration #  6     ecut=    30.00 Ry     beta= 0.30
     Davidson diagonalization with overlap
     ethr =  1.17E-06,  avg # of iterations =  1.1

     negative rho (up, down):  6.726E-06 0.000E+00

     total cpu time spent up to now is       35.2 secs

     total energy              =   -1034.71945087 Ry
     estimated scf accuracy    <       0.00070356 Ry

     iteration #  7     ecut=    30.00 Ry     beta= 0.30
     Davidson diagonalization with overlap
     ethr =  7.11E-07,  avg # of iterations =  1.1

     negative rho (up, down):  6.649E-06 0.000E+00

     total cpu time spent up to now is       35.9 secs

     total energy              =   -1034.71947280 Ry
     estimated scf accuracy    <       0.00011749 Ry

     iteration #  8     ecut=    30.00 Ry     beta= 0.30
     Davidson diagonalization with overlap
     ethr =  1.19E-07,  avg # of iterations =  1.2

     negative rho (up, down):  6.611E-06 0.000E+00

     total cpu time spent up to now is       36.6 secs

     total energy              =   -1034.71947700 Ry
     estimated scf accuracy    <       0.00010149 Ry

     iteration #  9     ecut=    30.00 Ry     beta= 0.30
     Davidson diagonalization with overlap
     ethr =  1.03E-07,  avg # of iterations =  1.0

     negative rho (up, down):  6.604E-06 0.000E+00

     total cpu time spent up to now is       37.2 secs

     total energy              =   -1034.71948233 Ry
     estimated scf accuracy    <       0.00000343 Ry

     iteration # 10     ecut=    30.00 Ry     beta= 0.30
     Davidson diagonalization with overlap
     ethr =  3.47E-09,  avg # of iterations =  2.0

     negative rho (up, down):  6.606E-06 0.000E+00

     total cpu time spent up to now is       38.0 secs

     total energy              =   -1034.71948258 Ry
     estimated scf accuracy    <       0.00000182 Ry

     iteration # 11     ecut=    30.00 Ry     beta= 0.30
     Davidson diagonalization with overlap
     ethr =  1.84E-09,  avg # of iterations =  1.8

     negative rho (up, down):  6.614E-06 0.000E+00

     total cpu time spent up to now is       38.7 secs

     total energy              =   -1034.71948269 Ry
     estimated scf accuracy    <       0.00000083 Ry

     iteration # 12     ecut=    30.00 Ry     beta= 0.30
     Davidson diagonalization with overlap
     ethr =  8.39E-10,  avg # of iterations =  2.0

     negative rho (up, down):  6.619E-06 0.000E+00

     total cpu time spent up to now is       39.4 secs

     total energy              =   -1034.71948259 Ry
     estimated scf accuracy    <       0.00001649 Ry

     iteration # 13     ecut=    30.00 Ry     beta= 0.30
     Davidson diagonalization with overlap
     ethr =  8.39E-10,  avg # of iterations =  1.0

     negative rho (up, down):  6.621E-06 0.000E+00

     total cpu time spent up to now is       40.1 secs

     total energy              =   -1034.71948273 Ry
     estimated scf accuracy    <       0.00000278 Ry

     iteration # 14     ecut=    30.00 Ry     beta= 0.30
     Davidson diagonalization with overlap
     ethr =  8.39E-10,  avg # of iterations =  1.0

     negative rho (up, down):  6.625E-06 0.000E+00

     total cpu time spent up to now is       40.7 secs

     total energy              =   -1034.71948272 Ry
     estimated scf accuracy    <       0.00000521 Ry

     iteration # 15     ecut=    30.00 Ry     beta= 0.30
     Davidson diagonalization with overlap
     ethr =  8.39E-10,  avg # of iterations =  1.0

     negative rho (up, down):  6.631E-06 0.000E+00

     total cpu time spent up to now is       41.4 secs

     End of self-consistent calculation

          k = 0.0000 0.0000 0.0000 (  4425 PWs)   bands (ev):

    -1.0179  -0.6916  -0.3939   0.3264   0.7810   1.1482   1.2800   1.4365
     1.4455   2.8226   2.8998   3.1347   3.2743   3.4765   3.6738   3.7582
     3.7847   3.8214   3.8981   3.9071   3.9363   3.9703   3.9742   4.0039
     4.0142   4.0169   4.0283   4.0415   4.0430   4.2146   4.2321   4.3686
     4.3881   4.4678   4.5610   4.6875   5.0203   5.0860   5.2537   5.2719
     5.3758   5.3841   5.4057   5.4793   5.5183   5.5313   5.5911   5.6618
     5.6758   6.1532   6.2170   6.3978   6.4764   7.7583   8.0592  11.7900
    12.6375  12.7684  14.0440  14.4789

     occupation numbers 
     1.0000   1.0000   1.0000   1.0000   1.0000   1.0000   1.0000   1.0000
     1.0000   1.0000   1.0000   1.0000   1.0000   1.0000   1.0000   1.0000
     1.0000   1.0000   1.0000   1.0000   1.0000   1.0000   1.0000   1.0000
     1.0000   1.0000   1.0000   1.0000   1.0000   1.0000   1.0000   1.0000
     1.0000   1.0000   1.0000   1.0000   1.0000   1.0000   1.0000   1.0000
     1.0000   1.0000   1.0000   1.0000   1.0000   1.0000   1.0000   1.0000
     1.0000   1.0000   1.0000   1.0000   1.0000   1.0000   0.8501   0.0000
     0.0000   0.0000   0.0000   0.0000

          k = 0.0000 0.2887 0.0000 (  4464 PWs)   bands (ev):

     0.5421   0.8198   1.0581   1.5623   1.9353   2.2313   2.3577   2.4436
     2.4726   2.6951   2.7636   2.8536   3.0157   3.0247   3.1350   3.2075
     3.3047   3.3715   3.5579   3.6425   3.6582   3.8359   3.9208   4.1042
     4.1190   4.2393   4.3093   4.5649   4.7208   4.7517   4.8453   4.8538
     4.8985   4.9633   4.9790   5.0079   5.0219   5.0513   5.0928   5.1180
     5.1670   5.2382   5.2580   5.3574   5.4706   5.5479   5.5768   5.6921
     5.9355   6.3597   7.0151   7.6377   8.7871  10.0418  11.3612  12.7215
    13.8370  14.1108  15.3718  15.5674

     occupation numbers 
     1.0000   1.0000   1.0000   1.0000   1.0000   1.0000   1.0000   1.0000
     1.0000   1.0000   1.0000   1.0000   1.0000   1.0000   1.0000   1.0000
     1.0000   1.0000   1.0000   1.0000   1.0000   1.0000   1.0000   1.0000
     1.0000   1.0000   1.0000   1.0000   1.0000   1.0000   1.0000   1.0000
     1.0000   1.0000   1.0000   1.0000   1.0000   1.0000   1.0000   1.0000
     1.0000   1.0000   1.0000   1.0000   1.0000   1.0000   1.0000   1.0000
     1.0000   1.0000   1.0000   1.0000   0.0000   0.0000   0.0000   0.0000
     0.0000   0.0000   0.0000   0.0000

          k = 0.0000-0.5774 0.0000 (  4488 PWs)   bands (ev):

     1.3437   1.5736   1.6258   1.8012   1.8535   1.8765   2.0972   2.1279
     2.2138   2.2991   2.3137   2.3504   2.7103   2.7295   2.8371   2.8607
     3.1336   3.1993   3.8062   3.8402   4.4359   4.4472   4.6550   4.7537
     4.9443   5.0160   5.0771   5.1158   5.1765   5.4275   5.4574   5.6347
     5.9515   5.9762   6.1186   6.1280   6.2215   6.2224   6.2398   6.2497
     6.2722   6.2755   6.3821   6.4312   6.6265   7.7744   8.2586   8.7000
     8.8828   8.9691   9.1671   9.1672   9.4040   9.4562  10.7758  11.0770
    11.5676  11.6879  12.7804  13.2734

     occupation numbers 
     1.0000   1.0000   1.0000   1.0000   1.0000   1.0000   1.0000   1.0000
     1.0000   1.0000   1.0000   1.0000   1.0000   1.0000   1.0000   1.0000
     1.0000   1.0000   1.0000   1.0000   1.0000   1.0000   1.0000   1.0000
     1.0000   1.0000   1.0000   1.0000   1.0000   1.0000   1.0000   1.0000
     1.0000   1.0000   1.0000   1.0000   1.0000   1.0000   1.0000   1.0000
     1.0000   1.0000   1.0000   1.0000   1.0000   1.0000   0.0000   0.0000
     0.0000   0.0000   0.0000   0.0000   0.0000   0.0000   0.0000   0.0000
     0.0000   0.0000   0.0000   0.0000

          k = 0.2500 0.4330 0.0000 (  4489 PWs)   bands (ev):

     1.9428   2.0556   2.2509   2.2903   2.3727   2.4385   2.5149   2.5268
     2.8526   2.9684   2.9914   3.0090   3.0690   3.0844   3.1280   3.2622
     3.3325   3.4370   3.4489   3.6083   3.6628   3.7680   3.9186   4.0502
     4.0883   4.1755   4.2292   4.3853   4.4672   4.6008   4.6123   4.7528
     5.0280   5.1766   5.1886   5.2040   5.2534   5.4471   5.6734   5.9365
     6.1225   6.1487   6.3500   6.4997   6.5667   7.8424   7.9614   8.0802
     8.4365   8.8810   9.5252  10.4342  11.3672  12.3444  12.9806  13.3929
    13.6322  13.8074  13.8845  13.9106

     occupation numbers 
     1.0000   1.0000   1.0000   1.0000   1.0000   1.0000   1.0000   1.0000
     1.0000   1.0000   1.0000   1.0000   1.0000   1.0000   1.0000   1.0000
     1.0000   1.0000   1.0000   1.0000   1.0000   1.0000   1.0000   1.0000
     1.0000   1.0000   1.0000   1.0000   1.0000   1.0000   1.0000   1.0000
     1.0000   1.0000   1.0000   1.0000   1.0000   1.0000   1.0000   1.0000
     1.0000   1.0000   1.0000   1.0000   1.0000   1.0000   1.0000   0.6220
     0.0000   0.0000   0.0000   0.0000   0.0000   0.0000   0.0000   0.0000
     0.0000   0.0000   0.0000   0.0000

          k =-0.2500 0.1443 0.0000 (  4464 PWs)   bands (ev):

     0.5520   0.8168   1.0934   1.5266   1.9231   2.2065   2.3670   2.4617
     2.5429   2.5901   2.7206   2.7552   2.9694   3.1550   3.2524   3.3103
     3.3675   3.3834   3.5087   3.5579   3.7860   3.8823   3.8992   4.1557
     4.1853   4.2994   4.3356   4.5296   4.5946   4.6216   4.7325   4.7352
     4.7672   4.8735   4.9349   4.9857   5.0223   5.0240   5.0885   5.1367
     5.1439   5.2830   5.2898   5.4569   5.5164   5.5886   5.7499   5.7840
     5.8687   6.2886   7.0493   7.5556   8.8331  10.0898  11.3954  12.7330
    13.8393  14.0799  15.3919  15.5068

     occupation numbers 
     1.0000   1.0000   1.0000   1.0000   1.0000   1.0000   1.0000   1.0000
     1.0000   1.0000   1.0000   1.0000   1.0000   1.0000   1.0000   1.0000
     1.0000   1.0000   1.0000   1.0000   1.0000   1.0000   1.0000   1.0000
     1.0000   1.0000   1.0000   1.0000   1.0000   1.0000   1.0000   1.0000
     1.0000   1.0000   1.0000   1.0000   1.0000   1.0000   1.0000   1.0000
     1.0000   1.0000   1.0000   1.0000   1.0000   1.0000   1.0000   1.0000
     1.0000   1.0000   1.0000   1.0000   0.0000   0.0000   0.0000   0.0000
     0.0000   0.0000   0.0000   0.0000

          k = 0.2500 0.1443 0.0000 (  4464 PWs)   bands (ev):

     0.4506   0.7534   0.9679   1.6360   1.9006   2.0918   2.1556   2.2181
     2.2454   2.7125   2.7815   2.9585   3.0575   3.2094   3.3775   3.4398
     3.4810   3.5470   3.6296   3.7490   3.8519   3.9216   4.1591   4.1629
     4.2181   4.2775   4.3269   4.4178   4.4772   4.6338   4.7414   4.7596
     4.7764   4.8112   4.8602   4.9368   5.0383   5.0543   5.1016   5.1254
     5.2117   5.2783   5.3404   5.3421   5.4216   5.6291   5.9284   6.0609
     6.2288   6.2898   6.4878   7.4070   8.4233   9.7422  10.9622  12.6440
    13.9033  14.0717  15.3813  15.7514

     occupation numbers 
     1.0000   1.0000   1.0000   1.0000   1.0000   1.0000   1.0000   1.0000
     1.0000   1.0000   1.0000   1.0000   1.0000   1.0000   1.0000   1.0000
     1.0000   1.0000   1.0000   1.0000   1.0000   1.0000   1.0000   1.0000
     1.0000   1.0000   1.0000   1.0000   1.0000   1.0000   1.0000   1.0000
     1.0000   1.0000   1.0000   1.0000   1.0000   1.0000   1.0000   1.0000
     1.0000   1.0000   1.0000   1.0000   1.0000   1.0000   1.0000   1.0000
     1.0000   1.0000   1.0000   1.0000   0.0000   0.0000   0.0000   0.0000
     0.0000   0.0000   0.0000   0.0000

          k = 0.5000-0.2887 0.0000 (  4488 PWs)   bands (ev):

     1.3994   1.5221   1.6654   1.7621   1.8478   1.9601   2.0208   2.1217
     2.1629   2.2025   2.2678   2.2722   2.6481   2.7664   3.0862   3.1082
     3.2907   3.3135   3.6533   3.8067   4.3528   4.4143   4.4552   4.5814
     4.9188   4.9405   5.0188   5.1313   5.2528   5.4701   5.7042   5.8070
     5.9151   5.9859   6.0968   6.1190   6.1782   6.1959   6.2350   6.2634
     6.2662   6.3165   6.3846   6.3898   6.5650   7.9342   8.3111   8.6099
     8.7404   8.7704   9.0100   9.0133   9.9390  10.0565  10.3516  10.5405
    11.5964  11.6156  13.2433  13.4871

     occupation numbers 
     1.0000   1.0000   1.0000   1.0000   1.0000   1.0000   1.0000   1.0000
     1.0000   1.0000   1.0000   1.0000   1.0000   1.0000   1.0000   1.0000
     1.0000   1.0000   1.0000   1.0000   1.0000   1.0000   1.0000   1.0000
     1.0000   1.0000   1.0000   1.0000   1.0000   1.0000   1.0000   1.0000
     1.0000   1.0000   1.0000   1.0000   1.0000   1.0000   1.0000   1.0000
     1.0000   1.0000   1.0000   1.0000   1.0000   1.0000   0.0000   0.0000
     0.0000   0.0000   0.0000   0.0000   0.0000   0.0000   0.0000   0.0000
     0.0000   0.0000   0.0000   0.0000

          k =-0.5000-0.2887 0.0000 (  4488 PWs)   bands (ev):

     1.2684   1.4622   1.4997   1.7270   1.8219   1.9252   1.9489   1.9992
     2.1409   2.1473   2.2552   2.2705   2.7089   2.9403   3.0444   3.4334
     3.5347   3.6539   3.8328   3.9855   4.0588   4.1798   4.3027   4.6035
     4.7699   4.8168   4.9305   5.1687   5.2644   5.4444   5.7299   5.9037
     6.0203   6.0756   6.0989   6.1843   6.2264   6.2673   6.2697   6.2965
     6.3035   6.3484   6.3627   6.3647   6.4785   7.7333   7.9450   8.0765
     9.1879   9.4778   9.5521   9.9121  10.0877  10.1649  10.4152  10.6174
    10.8952  11.9695  12.0048  12.7509

     occupation numbers 
     1.0000   1.0000   1.0000   1.0000   1.0000   1.0000   1.0000   1.0000
     1.0000   1.0000   1.0000   1.0000   1.0000   1.0000   1.0000   1.0000
     1.0000   1.0000   1.0000   1.0000   1.0000   1.0000   1.0000   1.0000
     1.0000   1.0000   1.0000   1.0000   1.0000   1.0000   1.0000   1.0000
     1.0000   1.0000   1.0000   1.0000   1.0000   1.0000   1.0000   1.0000
     1.0000   1.0000   1.0000   1.0000   1.0000   1.0000   1.0000   0.6693
     0.0000   0.0000   0.0000   0.0000   0.0000   0.0000   0.0000   0.0000
     0.0000   0.0000   0.0000   0.0000

          k =-0.2500 0.4330 0.0000 (  4489 PWs)   bands (ev):

     1.8132   2.0124   2.0871   2.2386   2.2780   2.3453   2.6548   2.6750
     2.8791   2.9616   2.9860   3.0122   3.1040   3.1519   3.2804   3.3694
     3.4456   3.4735   3.6135   3.6228   3.6839   3.7267   3.9854   4.0595
     4.1499   4.1893   4.2152   4.3063   4.3972   4.5686   4.6830   4.8133
     4.9832   5.0426   5.1619   5.2305   5.2985   5.4079   5.7775   5.9558
     5.9978   6.1091   6.1665   6.3864   6.5168   7.7624   7.8913   8.0644
     8.4338   9.0053   9.7799  10.4344  11.4058  12.1247  12.5999  12.9018
    13.2825  13.4581  13.9220  14.1465

     occupation numbers 
     1.0000   1.0000   1.0000   1.0000   1.0000   1.0000   1.0000   1.0000
     1.0000   1.0000   1.0000   1.0000   1.0000   1.0000   1.0000   1.0000
     1.0000   1.0000   1.0000   1.0000   1.0000   1.0000   1.0000   1.0000
[...]
    13.8152  14.1505  15.3437  15.6065

     occupation numbers 
     1.0000   1.0000   1.0000   1.0000   1.0000   1.0000   1.0000   1.0000
     1.0000   1.0000   1.0000   1.0000   1.0000   1.0000   1.0000   1.0000
     1.0000   1.0000   1.0000   1.0000   1.0000   1.0000   1.0000   1.0000
     1.0000   1.0000   1.0000   1.0000   1.0000   1.0000   1.0000   1.0000
     1.0000   1.0000   1.0000   1.0000   1.0000   1.0000   1.0000   1.0000
     1.0000   1.0000   1.0000   1.0000   1.0000   1.0000   1.0000   1.0000
     1.0000   1.0000   1.0000   1.0000   0.0000   0.0000   0.0000   0.0000
     0.0000   0.0000   0.0000   0.0000

          k = 0.2500 0.1443 0.0000 (  4464 PWs)   bands (ev):

     0.4321   0.7082   1.0964   1.4933   1.8605   2.0346   2.2015   2.4151
     2.4917   2.5612   2.7690   2.9719   3.1311   3.2476   3.3201   3.4796
     3.5060   3.6599   3.8248   3.8636   3.9329   3.9923   4.0418   4.0671
     4.0781   4.1424   4.2443   4.3528   4.3893   4.4275   4.5323   4.6156
     4.7372   4.8204   4.8633   4.9223   4.9557   4.9736   5.0314   5.1030
     5.1581   5.2406   5.3866   5.4797   5.5417   5.6004   5.8279   6.0874
     6.1092   6.2522   6.8250   7.6638   8.6817   9.9134  11.3045  12.6527
    13.8260  14.1584  15.3619  15.6438

     occupation numbers 
     1.0000   1.0000   1.0000   1.0000   1.0000   1.0000   1.0000   1.0000
     1.0000   1.0000   1.0000   1.0000   1.0000   1.0000   1.0000   1.0000
     1.0000   1.0000   1.0000   1.0000   1.0000   1.0000   1.0000   1.0000
     1.0000   1.0000   1.0000   1.0000   1.0000   1.0000   1.0000   1.0000
     1.0000   1.0000   1.0000   1.0000   1.0000   1.0000   1.0000   1.0000
     1.0000   1.0000   1.0000   1.0000   1.0000   1.0000   1.0000   1.0000
     1.0000   1.0000   1.0000   1.0000   0.0000   0.0000   0.0000   0.0000
     0.0000   0.0000   0.0000   0.0000

          k = 0.5000-0.2887 0.0000 (  4488 PWs)   bands (ev):

     1.2955   1.5259   1.5517   1.7243   1.8094   1.8791   1.9548   2.0058
     2.0633   2.1998   2.2243   2.3489   2.7315   3.1418   3.3645   3.4808
     3.5843   3.6050   3.7291   3.8806   4.1693   4.1880   4.2132   4.5487
     4.7264   4.7745   4.9252   5.2779   5.3435   5.4356   5.6339   5.9158
     5.9562   5.9955   6.0668   6.0969   6.1199   6.1943   6.2241   6.2563
     6.2706   6.3038   6.3236   6.3769   6.4349   7.6408   8.1677   8.6092
     8.9011   9.0557   9.1485   9.1872   9.3221   9.3253  11.0046  11.2226
    11.5120  11.9271  12.4743  13.1821

     occupation numbers 
     1.0000   1.0000   1.0000   1.0000   1.0000   1.0000   1.0000   1.0000
     1.0000   1.0000   1.0000   1.0000   1.0000   1.0000   1.0000   1.0000
     1.0000   1.0000   1.0000   1.0000   1.0000   1.0000   1.0000   1.0000
     1.0000   1.0000   1.0000   1.0000   1.0000   1.0000   1.0000   1.0000
     1.0000   1.0000   1.0000   1.0000   1.0000   1.0000   1.0000   1.0000
     1.0000   1.0000   1.0000   1.0000   1.0000   1.0000   0.0056   0.0000
     0.0000   0.0000   0.0000   0.0000   0.0000   0.0000   0.0000   0.0000
     0.0000   0.0000   0.0000   0.0000

          k =-0.5000-0.2887 0.0000 (  4488 PWs)   bands (ev):

     1.2673   1.5317   1.5399   1.7280   1.8124   1.8689   1.9529   2.0076
     2.0614   2.1966   2.2217   2.3522   2.7284   3.1388   3.3955   3.5196
     3.5985   3.6476   3.7198   3.8415   4.1779   4.1797   4.2110   4.5369
     4.7454   4.7534   4.9207   5.2809   5.3724   5.3951   5.6396   5.9428
     5.9448   5.9590   6.0660   6.1197   6.1349   6.2000   6.2259   6.2587
     6.2689   6.3091   6.3309   6.3713   6.4310   7.5797   8.1403   8.6117
     8.9145   9.0851   9.2071   9.2902   9.3829   9.4106  10.8749  11.1360
    11.4427  11.8396  12.3748  13.0568

     occupation numbers 
     1.0000   1.0000   1.0000   1.0000   1.0000   1.0000   1.0000   1.0000
     1.0000   1.0000   1.0000   1.0000   1.0000   1.0000   1.0000   1.0000
     1.0000   1.0000   1.0000   1.0000   1.0000   1.0000   1.0000   1.0000
     1.0000   1.0000   1.0000   1.0000   1.0000   1.0000   1.0000   1.0000
     1.0000   1.0000   1.0000   1.0000   1.0000   1.0000   1.0000   1.0000
     1.0000   1.0000   1.0000   1.0000   1.0000   1.0000   0.0557   0.0000
     0.0000   0.0000   0.0000   0.0000   0.0000   0.0000   0.0000   0.0000
     0.0000   0.0000   0.0000   0.0000

          k =-0.2500 0.4330 0.0000 (  4489 PWs)   bands (ev):

     2.0277   2.0363   2.2163   2.2231   2.3775   2.4588   2.6262   2.6356
     2.8089   2.8134   2.9576   3.0092   3.1460   3.1777   3.2826   3.2944
     3.3245   3.4248   3.4550   3.5273   3.6882   3.7882   3.9244   3.9863
     4.2045   4.2066   4.2306   4.2497   4.5869   4.6679   4.7218   4.8507
     4.9866   5.0450   5.0932   5.1260   5.2275   5.4253   5.7391   6.0041
     6.1479   6.1930   6.2102   6.2780   6.3730   7.7221   7.8459   8.0644
     8.4242   9.0077   9.7512  10.6053  11.4756  12.1917  12.9990  13.0151
    13.3121  13.5030  13.7154  14.0923

     occupation numbers 
     1.0000   1.0000   1.0000   1.0000   1.0000   1.0000   1.0000   1.0000
     1.0000   1.0000   1.0000   1.0000   1.0000   1.0000   1.0000   1.0000
     1.0000   1.0000   1.0000   1.0000   1.0000   1.0000   1.0000   1.0000
     1.0000   1.0000   1.0000   1.0000   1.0000   1.0000   1.0000   1.0000
     1.0000   1.0000   1.0000   1.0000   1.0000   1.0000   1.0000   1.0000
     1.0000   1.0000   1.0000   1.0000   1.0000   1.0000   1.0000   0.8505
     0.0000   0.0000   0.0000   0.0000   0.0000   0.0000   0.0000   0.0000
     0.0000   0.0000   0.0000   0.0000

          k = 0.5000 0.0000 0.0000 (  4489 PWs)   bands (ev):

     2.0461   2.0825   2.2181   2.2413   2.3610   2.4461   2.6098   2.6157
     2.8037   2.8205   2.9606   3.0197   3.1570   3.1814   3.2504   3.2762
     3.3274   3.4179   3.4462   3.5049   3.6713   3.7713   3.9155   3.9814
     4.2040   4.2077   4.2388   4.2573   4.6357   4.6838   4.7171   4.8247
     4.9778   5.0248   5.1207   5.1234   5.2382   5.4437   5.7405   5.9921
     6.1367   6.1721   6.1983   6.3076   6.4270   7.7241   7.8493   8.0692
     8.4260   8.9977   9.7236  10.5667  11.4604  12.2670  13.0499  13.0622
    13.3530  13.5027  13.7339  14.0400

     occupation numbers 
     1.0000   1.0000   1.0000   1.0000   1.0000   1.0000   1.0000   1.0000
     1.0000   1.0000   1.0000   1.0000   1.0000   1.0000   1.0000   1.0000
     1.0000   1.0000   1.0000   1.0000   1.0000   1.0000   1.0000   1.0000
     1.0000   1.0000   1.0000   1.0000   1.0000   1.0000   1.0000   1.0000
     1.0000   1.0000   1.0000   1.0000   1.0000   1.0000   1.0000   1.0000
     1.0000   1.0000   1.0000   1.0000   1.0000   1.0000   1.0000   0.8086
     0.0000   0.0000   0.0000   0.0000   0.0000   0.0000   0.0000   0.0000
     0.0000   0.0000   0.0000   0.0000

     the Fermi energy is     8.0944 ev

!    total energy              =   -1034.76294769 Ry
     estimated scf accuracy    <          8.4E-09 Ry
     smearing contrib. (-TS)   =      -0.00045317 Ry
     internal energy E=F+TS    =   -1034.76249452 Ry

     The total energy is F=E-TS. E is the sum of the following terms:
     one-electron contribution =   -4743.74343523 Ry
     hartree contribution      =    2469.59202219 Ry
     xc contribution           =    -559.98217787 Ry
     ewald contribution        =    1799.37109639 Ry

     convergence has been achieved in  15 iterations

     negative rho (up, down):  7.615E-06 0.000E+00

     Forces acting on atoms (cartesian axes, Ry/au):

     atom    1 type  1   force =     0.00045926   -0.00045218   -0.00064280
     atom    2 type  1   force =    -0.00005561   -0.00013815   -0.00027681
     atom    3 type  1   force =    -0.00024206    0.00006080   -0.00004917
     atom    4 type  1   force =     0.00023661   -0.00005819    0.00000491
     atom    5 type  1   force =    -0.00001320    0.00014651    0.00021214
     atom    6 type  1   force =    -0.00038124    0.00047058   -0.00032711
     atom    7 type  1   force =     0.00004461    0.00082766    0.00019206
     atom    8 type  1   force =     0.00001939   -0.00001409    0.00066179
     atom    9 type  1   force =    -0.00006777   -0.00084296    0.00022500
     The non-local contrib.  to forces
     atom    1 type  1   force =     0.00060241   -0.00004930    0.00202693
     atom    2 type  1   force =    -0.00022052   -0.00024387   -0.01119400
     atom    3 type  1   force =    -0.00024160    0.00002985   -0.03499121
     atom    4 type  1   force =     0.00023926   -0.00002613    0.03504948
     atom    5 type  1   force =     0.00016047    0.00025159    0.01127675
     atom    6 type  1   force =    -0.00053822    0.00005401   -0.00227844
     atom    7 type  1   force =     0.00013029    0.00081359   -0.01594612
     atom    8 type  1   force =     0.00003166   -0.00000327    0.00008032
     atom    9 type  1   force =    -0.00014437   -0.00081637    0.01595624
     The ionic contribution  to forces
     atom    1 type  1   force =     0.01013807   -0.01127902  -73.95353730
     atom    2 type  1   force =     0.00165496    0.00051227   36.84509019
     atom    3 type  1   force =    -0.00896099   -0.00009656  143.72821902
     atom    4 type  1   force =     0.00869428    0.00022604 -143.69854617
     atom    5 type  1   force =    -0.00302715   -0.00045318  -36.84211575
     atom    6 type  1   force =    -0.00873618    0.01137493   73.85374063
     atom    7 type  1   force =     0.00198875    0.02236988 -110.55585694
     atom    8 type  1   force =     0.00042748   -0.00021602    0.06806346
     atom    9 type  1   force =    -0.00217922   -0.02243833  110.55494286
     The local contribution  to forces
     atom    1 type  1   force =    -0.01034148    0.01073910   73.94971152
     atom    2 type  1   force =    -0.00139792   -0.00032443  -36.83153203
     atom    3 type  1   force =     0.00895564    0.00012205 -143.67386621
     atom    4 type  1   force =    -0.00869256   -0.00025028  143.64430192
     atom    5 type  1   force =     0.00276472    0.00026475   36.82809545
     atom    6 type  1   force =     0.00895914   -0.01082091  -73.85094352
     atom    7 type  1   force =    -0.00212165   -0.02235370  110.56742457
     atom    8 type  1   force =    -0.00044372    0.00020417   -0.06756201
     atom    9 type  1   force =     0.00231145    0.02241096 -110.56599555
     The core correction contribution to forces
     atom    1 type  1   force =     0.00003744    0.00013177    0.00122798
     atom    2 type  1   force =    -0.00007590   -0.00007047   -0.00266119
     atom    3 type  1   force =    -0.00001293   -0.00000659   -0.01935661
     atom    4 type  1   force =     0.00001481    0.00000192    0.01932445
     atom    5 type  1   force =     0.00007302    0.00006831    0.00269809
     atom    6 type  1   force =    -0.00004577   -0.00013366   -0.00097823
     atom    7 type  1   force =     0.00005272   -0.00000289    0.00474980
     atom    8 type  1   force =     0.00000601    0.00000123   -0.00018939
     atom    9 type  1   force =    -0.00005565    0.00000177   -0.00486049
     The Hubbard contrib.    to forces
     atom    1 type  1   force =     0.00000000    0.00000000    0.00000000
     atom    2 type  1   force =     0.00000000    0.00000000    0.00000000
     atom    3 type  1   force =     0.00000000    0.00000000    0.00000000
     atom    4 type  1   force =     0.00000000    0.00000000    0.00000000
     atom    5 type  1   force =     0.00000000    0.00000000    0.00000000
     atom    6 type  1   force =     0.00000000    0.00000000    0.00000000
     atom    7 type  1   force =     0.00000000    0.00000000    0.00000000
     atom    8 type  1   force =     0.00000000    0.00000000    0.00000000
     atom    9 type  1   force =     0.00000000    0.00000000    0.00000000
     The SCF correction term to forces
     atom    1 type  1   force =     0.00002553    0.00000536   -0.00005976
     atom    2 type  1   force =    -0.00001351   -0.00001157    0.00003238
     atom    3 type  1   force =     0.00002055    0.00001213   -0.00004199
     atom    4 type  1   force =    -0.00001646   -0.00000966   -0.00011259
     atom    5 type  1   force =     0.00001847    0.00001511    0.00026978
     atom    6 type  1   force =    -0.00001749   -0.00000371    0.00014461
     atom    7 type  1   force =    -0.00000277    0.00000086   -0.00016708
     atom    8 type  1   force =     0.00000066   -0.00000011    0.00028157
     atom    9 type  1   force =     0.00000274   -0.00000089    0.00019411

     Total force =     0.001876     Total SCF correction =     0.000510
     SCF correction compared to forces is large: reduce conv_thr to get better values


     Computing stress (Cartesian axis) and pressure


     negative rho (up, down):  7.615E-06 0.000E+00
          total   stress  (Ry/bohr**3)                   (kbar)     P=       -7.09
  -0.00007388  -0.00000635  -0.00001073          -10.87       -0.93       -1.58
  -0.00000635  -0.00006406  -0.00000814           -0.93       -9.42       -1.20
  -0.00001073  -0.00000814  -0.00000671           -1.58       -1.20       -0.99

     kinetic stress (kbar)  13776.84      1.51      2.11
                                1.51  13774.83      1.72
                                2.11      1.72  13833.22

     local   stress (kbar)-422942.71     72.41     62.44
                               72.41-423048.86     47.51
                               62.44     47.51 457229.54

     nonloc. stress (kbar)  -8705.93     -0.12     -0.26
                               -0.12  -8705.88     -0.17
                               -0.26     -0.17  -8680.44

     hartree stress (kbar) 220549.56    -22.34    -17.70
                              -22.34 220582.21    -13.39
                              -17.70    -13.39-215550.81

     exc-cor stress (kbar)  35648.66     -0.12     -0.14
                               -0.12  35648.85     -0.10
                               -0.14     -0.10  35646.18

     corecor stress (kbar) -41144.11     -0.07     -0.17
                               -0.07 -41144.07     -0.14
                               -0.17     -0.14 -41149.04

     ewald   stress (kbar) 202806.82    -52.21    -47.86
                              -52.21 202883.50    -36.63
                              -47.86    -36.63-241329.64

     hubbard stress (kbar)      0.00      0.00      0.00
                                0.00      0.00      0.00
                                0.00      0.00      0.00

     DFT-D   stress (kbar)      0.00      0.00      0.00
                                0.00      0.00      0.00
                                0.00      0.00      0.00

     XDM     stress (kbar)      0.00      0.00      0.00
                                0.00      0.00      0.00
                                0.00      0.00      0.00

     dft-nl  stress (kbar)      0.00      0.00      0.00
                                0.00      0.00      0.00
                                0.00      0.00      0.00

     TS-vdW  stress (kbar)      0.00      0.00      0.00
                                0.00      0.00      0.00
                                0.00      0.00      0.00


     Energy error            =      8.6E-06
     Gradient error          =      8.4E-04

     bfgs converged in  49 scf cycles and  48 bfgs steps
     (criteria: energy <  1.0E-04 Ry, force <  1.0E-03 Ry/Bohr)

     End of BFGS Geometry Optimization

     Final energy   =   -1034.7629476949 Ry

     File ./surface.bfgs deleted, as requested
Begin final coordinates

ATOMIC_POSITIONS (angstrom)
Au            0.4240226178        1.7962005607        4.8976151284
Au            0.5236958326        1.8537390840       12.0056106503
Au            0.5986460018        1.9111837190       19.2237802706
Au            0.3849889344        0.0546985388        0.0416177050
Au            0.4601161438        0.1129753786        7.2606851990
Au            0.5584020207        0.1703053547       14.3720871566
Au            1.8789045835        0.9069463136        2.5206621414
Au            1.9661268271        0.9834017169        9.6308877982
Au            2.0537470381        1.0591993339       16.7456139504
End final coordinates



     Writing output data file ./surface.save/

     init_run     :      0.50s CPU      0.56s WALL (       1 calls)
     electrons    :    548.09s CPU    574.56s WALL (      49 calls)
     update_pot   :      7.45s CPU      7.59s WALL (      48 calls)
     forces       :     16.03s CPU     16.80s WALL (      49 calls)
     stress       :     61.21s CPU     63.10s WALL (      49 calls)

     Called by init_run:
     wfcinit      :      0.23s CPU      0.24s WALL (       1 calls)
     wfcinit:atom :      0.00s CPU      0.00s WALL (      10 calls)
     wfcinit:wfcr :      0.22s CPU      0.22s WALL (      10 calls)
     potinit      :      0.06s CPU      0.07s WALL (       1 calls)
     hinit0       :      0.11s CPU      0.13s WALL (       1 calls)

     Called by electrons:
     c_bands      :    377.33s CPU    385.00s WALL (     708 calls)
     sum_band     :    111.81s CPU    121.62s WALL (     708 calls)
     v_of_rho     :     11.17s CPU     11.62s WALL (     735 calls)
     v_h          :      0.53s CPU      0.53s WALL (     735 calls)
     v_xc         :     12.03s CPU     12.52s WALL (     833 calls)
     newd         :     49.21s CPU     57.16s WALL (     735 calls)
     mix_rho      :      1.20s CPU      1.23s WALL (     708 calls)

     Called by c_bands:
     init_us_2    :      3.67s CPU      3.81s WALL (   15150 calls)
     cegterg      :    360.12s CPU    367.16s WALL (    7080 calls)

     Called by sum_band:
     sum_band:wei :      0.15s CPU      0.16s WALL (     708 calls)
     sum_band:loo :     37.99s CPU     39.05s WALL (     708 calls)
     sum_band:buf :      0.41s CPU      0.42s WALL (    7080 calls)
     sum_band:ini :      1.46s CPU      1.49s WALL (    7080 calls)
     sum_band:cal :     11.17s CPU     11.37s WALL (    7080 calls)
     sum_band:bec :      0.76s CPU      0.77s WALL (    7080 calls)
     addusdens    :     39.62s CPU     47.99s WALL (     708 calls)
     addusd:skk   :      0.21s CPU      0.22s WALL (     708 calls)
     addusd:dgemm :     10.85s CPU     18.81s WALL (     708 calls)
     addusd:qvan2 :     23.76s CPU     23.94s WALL (     708 calls)

     Called by *egterg:
     cdiaghg      :     86.87s CPU     87.75s WALL (   23909 calls)
     cegterg:over :     25.68s CPU     25.97s WALL (   17529 calls)
     cegterg:upda :     13.41s CPU     13.57s WALL (   17529 calls)
     cegterg:last :     27.79s CPU     28.07s WALL (   13880 calls)
     cdiaghg:chol :      4.16s CPU      4.22s WALL (   23909 calls)
     cdiaghg:inve :      2.59s CPU      2.63s WALL (   23909 calls)
     cdiaghg:para :      7.76s CPU      7.85s WALL (   47818 calls)
     h_psi        :    177.36s CPU    182.55s WALL (   24619 calls)
     s_psi        :     19.60s CPU     19.82s WALL (   24619 calls)
     g_psi        :      0.49s CPU      0.50s WALL (   17529 calls)

     Called by h_psi:
     h_psi:calbec :     34.27s CPU     34.88s WALL (   24619 calls)
     vloc_psi     :    120.86s CPU    125.23s WALL (   24619 calls)
     add_vuspsi   :     21.38s CPU     21.60s WALL (   24619 calls)

     General routines
     calbec       :     49.80s CPU     50.69s WALL (   34149 calls)
     fft          :     41.52s CPU     41.99s WALL (   10752 calls)
     ffts         :      0.21s CPU      0.21s WALL (    1443 calls)
     fftw         :    132.92s CPU    137.68s WALL ( 2581390 calls)
     interpolate  :      0.63s CPU      0.64s WALL (     735 calls)

     Parallel routines
     fft_scatt_xy :     17.15s CPU     17.77s WALL ( 2593585 calls)
     fft_scatt_yz :    106.93s CPU    109.82s WALL ( 2593585 calls)

     PWSCF        :  10m37.30s CPU  11m 8.25s WALL


   This run was terminated on:   4: 2:33  10Dec2021            

=------------------------------------------------------------------------------=
   JOB DONE.
=------------------------------------------------------------------------------=
