
     Program PWSCF v.6.7MaX starts on  9Dec2021 at 17:50:26 

     This program is part of the open-source Quantum ESPRESSO suite
     for quantum simulation of materials; please cite
         "P. Giannozzi et al., J. Phys.:Condens. Matter 21 395502 (2009);
         "P. Giannozzi et al., J. Phys.:Condens. Matter 29 465901 (2017);
          URL http://www.quantum-espresso.org", 
     in publications or presentations arising from this work. More details at
     http://www.quantum-espresso.org/quote

     Parallel version (MPI), running on    32 processors

     MPI processes distributed on     1 nodes
     R & G space division:  proc/nbgrp/npool/nimage =      32
     Reading input from au_surface.110.qe.in

     Current dimensions of program PWSCF are:
     Max number of different atomic species (ntypx) = 10
     Max number of k-points (npk) =  40000
     Max angular momentum in pseudopotentials (lmaxx) =  3

     Subspace diagonalization in iterative solution of the eigenvalue problem:
     one sub-group per band group will be used
     scalapack distributed-memory algorithm (size of sub-group:  5*  5 procs)

     Found symmetry operation: I + (  0.0000  0.3333  0.0000)
     This is a supercell, fractional translations are disabled

     Parallelization info
     --------------------
     sticks:   dense  smooth     PW     G-vecs:    dense   smooth      PW
     Min         282     113     30                25232     6383     903
     Max         283     114     31                25234     6387     909
     Sum        9029    3617    979               807431   204309   28963



     bravais-lattice index     =            8
     lattice parameter (alat)  =      23.1203  a.u.
     unit-cell volume          =    9202.6773 (a.u.)^3
     number of atoms/cell      =           18
     number of atomic types    =            1
     number of electrons       =       198.00
     number of Kohn-Sham states=          119
     kinetic-energy cutoff     =      30.0000  Ry
     charge density cutoff     =     300.0000  Ry
     scf convergence threshold =      1.0E-06
     mixing beta               =       0.3000
     number of iterations used =            8  plain     mixing
     energy convergence thresh.=      1.0E-04
     force convergence thresh. =      1.0E-03
     Exchange-correlation= SLA  PW   PBE  PBE
                           (   1   4   3   4   0   0   0)
     nstep                     =           50


     celldm(1)=  23.120327  celldm(2)=   0.707106  celldm(3)=   1.053046
     celldm(4)=   0.000000  celldm(5)=   0.000000  celldm(6)=   0.000000

     crystal axes: (cart. coord. in units of alat)
               a(1) = (   1.000000   0.000000   0.000000 )  
               a(2) = (   0.000000   0.707106   0.000000 )  
               a(3) = (   0.000000   0.000000   1.053046 )  

     reciprocal axes: (cart. coord. in units 2 pi/alat)
               b(1) = (  1.000000  0.000000  0.000000 )  
               b(2) = (  0.000000  1.414214  0.000000 )  
               b(3) = (  0.000000  0.000000  0.949626 )  


     PseudoPot. # 1 for Au read from file:
     /expanse/lustre/projects/csd622/tpascal/nano110/qe/pseudo/au_pbe_v1.uspp.F.UPF
     MD5 check sum: 9d7f43293ad2c663164586bc4b293ffc
     Pseudo is Ultrasoft + core correction, Zval = 11.0
     Generated by new atomic code, or converted to UPF format
     Using radial grid of  985 points,  7 beta functions with: 
                l(1) =   0
                l(2) =   0
                l(3) =   1
                l(4) =   1
                l(5) =   2
                l(6) =   2
                l(7) =   3
     Q(r) pseudized with  6 coefficients,  rinner =    1.900   1.900   1.900
                                                       1.900   1.900   1.900
                                                       1.900

     atomic species   valence    mass     pseudopotential
        Au            11.00   196.96655     Au( 1.00)

      4 Sym. Ops. (no inversion) found


                                    s                        frac. trans.

      isym =  1     identity                                     

 cryst.   s( 1) = (     1          0          0      )
                  (     0          1          0      )
                  (     0          0          1      )

 cart.    s( 1) = (  1.0000000  0.0000000  0.0000000 )
                  (  0.0000000  1.0000000  0.0000000 )
                  (  0.0000000  0.0000000  1.0000000 )


      isym =  2     180 deg rotation - cart. axis [0,0,1]        

 cryst.   s( 2) = (    -1          0          0      )
                  (     0         -1          0      )
                  (     0          0          1      )

 cart.    s( 2) = ( -1.0000000  0.0000000  0.0000000 )
                  (  0.0000000 -1.0000000  0.0000000 )
                  (  0.0000000  0.0000000  1.0000000 )


      isym =  3     inv. 180 deg rotation - cart. axis [0,1,0]   

 cryst.   s( 3) = (     1          0          0      )
                  (     0         -1          0      )
                  (     0          0          1      )

 cart.    s( 3) = (  1.0000000  0.0000000  0.0000000 )
                  (  0.0000000 -1.0000000  0.0000000 )
                  (  0.0000000  0.0000000  1.0000000 )


      isym =  4     inv. 180 deg rotation - cart. axis [1,0,0]   

 cryst.   s( 4) = (    -1          0          0      )
                  (     0          1          0      )
                  (     0          0          1      )

 cart.    s( 4) = ( -1.0000000  0.0000000  0.0000000 )
                  (  0.0000000  1.0000000  0.0000000 )
                  (  0.0000000  0.0000000  1.0000000 )


     point group C_2v (mm2) 
     there are  4 classes
     the character table:

       E     C2    s_v   s_v' 
A_1    1.00  1.00  1.00  1.00
A_2    1.00  1.00 -1.00 -1.00
B_1    1.00 -1.00  1.00 -1.00
B_2    1.00 -1.00 -1.00  1.00

     the symmetry operations in each class and the name of the first element:

     E        1
          identity                                               
     C2       2
          180 deg rotation - cart. axis [0,0,1]                  
     s_v      4
          inv. 180 deg rotation - cart. axis [1,0,0]             
     s_v'     3
          inv. 180 deg rotation - cart. axis [0,1,0]             

   Cartesian axes

     site n.     atom                  positions (alat units)
         1           Au  tau(   1) = (   0.1666667   0.0000000   0.0000000  )
         2           Au  tau(   2) = (   0.0000000   0.1178511   0.1178511  )
         3           Au  tau(   3) = (   0.1666667   0.2357022   0.0000000  )
         4           Au  tau(   4) = (   0.0000000   0.3535534   0.1178511  )
         5           Au  tau(   5) = (   0.1666667   0.4714045   0.0000000  )
         6           Au  tau(   6) = (   0.0000000   0.5892556   0.1178511  )
         7           Au  tau(   7) = (   0.5000000   0.0000000   0.0000000  )
         8           Au  tau(   8) = (   0.3333333   0.1178511   0.1178511  )
         9           Au  tau(   9) = (   0.5000000   0.2357022   0.0000000  )
        10           Au  tau(  10) = (   0.3333333   0.3535534   0.1178511  )
        11           Au  tau(  11) = (   0.5000000   0.4714045   0.0000000  )
        12           Au  tau(  12) = (   0.3333333   0.5892556   0.1178511  )
        13           Au  tau(  13) = (   0.8333333   0.0000000   0.0000000  )
        14           Au  tau(  14) = (   0.6666667   0.1178511   0.1178511  )
        15           Au  tau(  15) = (   0.8333333   0.2357022   0.0000000  )
        16           Au  tau(  16) = (   0.6666667   0.3535534   0.1178511  )
        17           Au  tau(  17) = (   0.8333333   0.4714045   0.0000000  )
        18           Au  tau(  18) = (   0.6666667   0.5892556   0.1178511  )

   Crystallographic axes

     site n.     atom                  positions (cryst. coord.)
         1           Au  tau(   1) = (  0.1666667  0.0000000  0.0000000  )
         2           Au  tau(   2) = (  0.0000000  0.1666667  0.1119145  )
         3           Au  tau(   3) = (  0.1666667  0.3333335  0.0000000  )
         4           Au  tau(   4) = (  0.0000000  0.5000002  0.1119145  )
         5           Au  tau(   5) = (  0.1666667  0.6666670  0.0000000  )
         6           Au  tau(   6) = (  0.0000000  0.8333337  0.1119145  )
         7           Au  tau(   7) = (  0.5000000  0.0000000  0.0000000  )
         8           Au  tau(   8) = (  0.3333333  0.1666667  0.1119145  )
         9           Au  tau(   9) = (  0.5000000  0.3333335  0.0000000  )
        10           Au  tau(  10) = (  0.3333333  0.5000002  0.1119145  )
        11           Au  tau(  11) = (  0.5000000  0.6666670  0.0000000  )
        12           Au  tau(  12) = (  0.3333333  0.8333337  0.1119145  )
        13           Au  tau(  13) = (  0.8333333  0.0000000  0.0000000  )
        14           Au  tau(  14) = (  0.6666667  0.1666667  0.1119145  )
        15           Au  tau(  15) = (  0.8333333  0.3333335  0.0000000  )
        16           Au  tau(  16) = (  0.6666667  0.5000002  0.1119145  )
        17           Au  tau(  17) = (  0.8333333  0.6666670  0.0000000  )
        18           Au  tau(  18) = (  0.6666667  0.8333337  0.1119145  )

     number of k points=     9  Gaussian smearing, width (Ry)=  0.0030
                       cart. coord. in units 2pi/alat
        k(    1) = (   0.0000000   0.0000000   0.0000000), wk =   0.1250000
        k(    2) = (   0.0000000   0.3535536   0.0000000), wk =   0.2500000
        k(    3) = (   0.0000000  -0.7071072   0.0000000), wk =   0.1250000
        k(    4) = (   0.2500000   0.0000000   0.0000000), wk =   0.2500000
        k(    5) = (   0.2500000   0.3535536   0.0000000), wk =   0.5000000
        k(    6) = (   0.2500000  -0.7071072   0.0000000), wk =   0.2500000
        k(    7) = (  -0.5000000   0.0000000   0.0000000), wk =   0.1250000
        k(    8) = (  -0.5000000   0.3535536   0.0000000), wk =   0.2500000
        k(    9) = (  -0.5000000  -0.7071072   0.0000000), wk =   0.1250000

                       cryst. coord.
        k(    1) = (   0.0000000   0.0000000   0.0000000), wk =   0.1250000
        k(    2) = (   0.0000000   0.2500000   0.0000000), wk =   0.2500000
        k(    3) = (   0.0000000  -0.5000000   0.0000000), wk =   0.1250000
        k(    4) = (   0.2500000   0.0000000   0.0000000), wk =   0.2500000
        k(    5) = (   0.2500000   0.2500000   0.0000000), wk =   0.5000000
        k(    6) = (   0.2500000  -0.5000000   0.0000000), wk =   0.2500000
        k(    7) = (  -0.5000000   0.0000000   0.0000000), wk =   0.1250000
        k(    8) = (  -0.5000000   0.2500000   0.0000000), wk =   0.2500000
        k(    9) = (  -0.5000000  -0.5000000   0.0000000), wk =   0.1250000

     Dense  grid:   807431 G-vectors     FFT dimensions: ( 128,  96, 135)

     Smooth grid:   204309 G-vectors     FFT dimensions: (  81,  60,  90)

     Dynamical RAM for                 wfc:       1.45 MB

     Dynamical RAM for     wfc (w. buffer):      14.49 MB

     Dynamical RAM for           str. fact:       0.39 MB

     Dynamical RAM for           local pot:       0.00 MB

     Dynamical RAM for          nlocal pot:       5.48 MB

     Dynamical RAM for                qrad:       2.60 MB

     Dynamical RAM for          rho,v,vnew:       2.56 MB

     Dynamical RAM for               rhoin:       0.85 MB

     Dynamical RAM for            rho*nmix:       6.16 MB

     Dynamical RAM for           G-vectors:       1.49 MB

     Dynamical RAM for          h,s,v(r/c):       0.10 MB

     Dynamical RAM for          <psi|beta>:       0.82 MB

     Dynamical RAM for                 psi:       2.90 MB

     Dynamical RAM for                hpsi:       2.90 MB

     Dynamical RAM for                spsi:       2.90 MB

     Dynamical RAM for      wfcinit/wfcrot:       4.55 MB

     Dynamical RAM for           addusdens:     142.45 MB

     Dynamical RAM for          addusforce:     155.87 MB

     Dynamical RAM for         addusstress:     145.92 MB

     Estimated static dynamical RAM per process >      37.13 MB

     Estimated max dynamical RAM per process >     193.00 MB

     Estimated total dynamical RAM >       6.03 GB

     Check: negative core charge=   -0.000004

     Initial potential from superposition of free atoms

     starting charge  197.99780, renormalised to  198.00000

     negative rho (up, down):  2.553E-05 0.000E+00
     Starting wfcs are  162 randomized atomic wfcs

     total cpu time spent up to now is        2.8 secs

     Self-consistent Calculation

     iteration #  1     ecut=    30.00 Ry     beta= 0.30
     Davidson diagonalization with overlap
     ethr =  1.00E-02,  avg # of iterations =  2.0

     Threshold (ethr) on eigenvalues was too large:
     Diagonalizing with lowered threshold

     Davidson diagonalization with overlap
     ethr =  3.26E-04,  avg # of iterations =  2.2

     negative rho (up, down):  2.098E-05 0.000E+00

     total cpu time spent up to now is       10.5 secs

     total energy              =   -2068.80698472 Ry
     estimated scf accuracy    <       0.75569752 Ry

     iteration #  2     ecut=    30.00 Ry     beta= 0.30
     Davidson diagonalization with overlap
     ethr =  3.82E-04,  avg # of iterations =  1.8

     negative rho (up, down):  2.913E-05 0.000E+00

     total cpu time spent up to now is       14.4 secs

     total energy              =   -2068.85185014 Ry
     estimated scf accuracy    <       0.09056154 Ry

     iteration #  3     ecut=    30.00 Ry     beta= 0.30
     Davidson diagonalization with overlap
     ethr =  4.57E-05,  avg # of iterations =  5.0

     negative rho (up, down):  3.845E-05 0.000E+00

     total cpu time spent up to now is       20.1 secs

     total energy              =   -2068.87750423 Ry
     estimated scf accuracy    <       0.01025631 Ry

     iteration #  4     ecut=    30.00 Ry     beta= 0.30
     Davidson diagonalization with overlap
     ethr =  5.18E-06,  avg # of iterations =  4.9

     negative rho (up, down):  5.670E-05 0.000E+00

     total cpu time spent up to now is       25.3 secs

     total energy              =   -2068.87829302 Ry
     estimated scf accuracy    <       0.00379781 Ry

     iteration #  5     ecut=    30.00 Ry     beta= 0.30
     Davidson diagonalization with overlap
     c_bands:  1 eigenvalues not converged
     ethr =  1.92E-06,  avg # of iterations =  6.4

     negative rho (up, down):  5.602E-05 0.000E+00

     total cpu time spent up to now is       30.1 secs

     total energy              =   -2068.87848291 Ry
     estimated scf accuracy    <       0.00012955 Ry

     iteration #  6     ecut=    30.00 Ry     beta= 0.30
     Davidson diagonalization with overlap
     ethr =  6.54E-08,  avg # of iterations =  4.7

     negative rho (up, down):  5.730E-05 0.000E+00

     total cpu time spent up to now is       35.9 secs

     total energy              =   -2068.87853127 Ry
     estimated scf accuracy    <       0.00011104 Ry

     iteration #  7     ecut=    30.00 Ry     beta= 0.30
     Davidson diagonalization with overlap
     ethr =  5.61E-08,  avg # of iterations =  1.3

     negative rho (up, down):  5.928E-05 0.000E+00

     total cpu time spent up to now is       39.7 secs

     total energy              =   -2068.87854689 Ry
     estimated scf accuracy    <       0.00000700 Ry

     iteration #  8     ecut=    30.00 Ry     beta= 0.30
     Davidson diagonalization with overlap
     ethr =  3.54E-09,  avg # of iterations =  4.8

     negative rho (up, down):  6.114E-05 0.000E+00

     total cpu time spent up to now is       45.8 secs

     total energy              =   -2068.87855097 Ry
     estimated scf accuracy    <       0.00000302 Ry

     iteration #  9     ecut=    30.00 Ry     beta= 0.30
     Davidson diagonalization with overlap
     ethr =  1.52E-09,  avg # of iterations =  2.0

     negative rho (up, down):  6.539E-05 0.000E+00

     total cpu time spent up to now is       50.1 secs

     End of self-consistent calculation

          k = 0.0000 0.0000 0.0000 ( 25547 PWs)   bands (ev):

    -6.8508  -6.2233  -6.2233  -5.7784  -5.7784  -5.7321  -5.1318  -5.1318
    -4.8544  -4.8544  -4.8486  -4.8486  -4.8486  -4.8486  -4.7166  -4.7166
    -4.7050  -4.7050  -4.7049  -4.7049  -4.6954  -4.6954  -4.5597  -4.5597
    -4.5597  -4.5597  -4.4321  -4.4126  -4.4126  -4.4126  -4.4126  -4.2991
    -4.2991  -4.1877  -3.9309  -3.8371  -3.8371  -3.6773  -3.6773  -3.6773
    -3.6772  -3.5955  -3.5955  -3.5344  -3.5344  -3.3836  -3.3836  -3.3636
    -3.3026  -3.3026  -3.1546  -3.1546  -3.1545  -3.1545  -3.1500  -3.1500
    -3.1282  -3.1282  -3.1063  -3.1063  -3.1015  -3.1015  -3.1014  -3.1014
    -2.8615  -2.8007  -2.8007  -2.8007  -2.8007  -2.7717  -2.6279  -2.5745
    -2.5745  -2.4564  -2.4564  -2.4564  -2.4564  -2.3960  -2.3960  -2.3723
    -2.3723  -2.3723  -2.3723  -2.3276  -2.3276  -2.3021  -2.1196  -2.1196
    -2.0902  -2.0902  -2.0635  -2.0635  -1.8465  -1.8465  -1.8442  -1.3541
    -1.3541  -1.3541  -1.3541  -0.8676  -0.5363  -0.5363   1.0047   1.0047
     1.2769   1.2769   1.2769   1.2769   1.4490   1.4490   2.9791   3.1767
     3.1767   4.2244   4.2244   4.2244   4.2244   4.8587   4.8592

     occupation numbers 
     1.0000   1.0000   1.0000   1.0000   1.0000   1.0000   1.0000   1.0000
     1.0000   1.0000   1.0000   1.0000   1.0000   1.0000   1.0000   1.0000
     1.0000   1.0000   1.0000   1.0000   1.0000   1.0000   1.0000   1.0000
     1.0000   1.0000   1.0000   1.0000   1.0000   1.0000   1.0000   1.0000
     1.0000   1.0000   1.0000   1.0000   1.0000   1.0000   1.0000   1.0000
     1.0000   1.0000   1.0000   1.0000   1.0000   1.0000   1.0000   1.0000
     1.0000   1.0000   1.0000   1.0000   1.0000   1.0000   1.0000   1.0000
     1.0000   1.0000   1.0000   1.0000   1.0000   1.0000   1.0000   1.0000
     1.0000   1.0000   1.0000   1.0000   1.0000   1.0000   1.0000   1.0000
     1.0000   1.0000   1.0000   1.0000   1.0000   1.0000   1.0000   1.0000
     1.0000   1.0000   1.0000   1.0000   1.0000   1.0000   1.0000   1.0000
     1.0000   1.0000   1.0000   1.0000   1.0000   1.0000   1.0000   1.0000
     1.0000   1.0000   1.0000   1.0000   0.1276   0.1275   0.0000   0.0000
     0.0000   0.0000   0.0000   0.0000   0.0000   0.0000   0.0000   0.0000
     0.0000   0.0000   0.0000   0.0000   0.0000   0.0000   0.0000

          k = 0.0000 0.3536 0.0000 ( 25509 PWs)   bands (ev):

    -6.6719  -6.0361  -6.0361  -5.6039  -5.6039  -5.5684  -5.5370  -5.0532
    -4.9922  -4.9921  -4.9794  -4.9309  -4.9309  -4.9253  -4.9253  -4.8986
    -4.8939  -4.7918  -4.6290  -4.6290  -4.5884  -4.5884  -4.5731  -4.5731
    -4.4966  -4.4342  -4.4342  -4.4184  -4.3771  -4.3455  -4.3455  -4.2698
    -4.2698  -4.2162  -4.1184  -3.8692  -3.8667  -3.8667  -3.8389  -3.8389
    -3.6383  -3.6383  -3.6180  -3.6180  -3.5890  -3.5112  -3.5112  -3.5110
    -3.5110  -3.4579  -3.3988  -3.3988  -3.2582  -3.2417  -3.2417  -3.1669
    -3.0878  -3.0878  -3.0106  -3.0106  -2.9784  -2.9664  -2.9337  -2.8342
    -2.8341  -2.8077  -2.8076  -2.7957  -2.7957  -2.7551  -2.7528  -2.6942
    -2.6942  -2.6049  -2.4902  -2.4698  -2.4698  -2.4637  -2.4637  -2.3034
    -2.2661  -2.2612  -2.2314  -2.2196  -2.2196  -2.2008  -2.1194  -2.0542
    -2.0542  -2.0234  -2.0234  -2.0121  -2.0121  -1.9474  -1.7768  -1.7768
    -0.9331  -0.6699  -0.3919  -0.3919  -0.1817  -0.1817   0.5025   0.5025
     0.5228   1.3327   1.3328   2.4344   2.4345   2.6839   2.8078   3.1278
     3.1373   3.1374   3.4050   3.4050   3.7257   3.7257   4.2054

     occupation numbers 
     1.0000   1.0000   1.0000   1.0000   1.0000   1.0000   1.0000   1.0000
     1.0000   1.0000   1.0000   1.0000   1.0000   1.0000   1.0000   1.0000
     1.0000   1.0000   1.0000   1.0000   1.0000   1.0000   1.0000   1.0000
     1.0000   1.0000   1.0000   1.0000   1.0000   1.0000   1.0000   1.0000
     1.0000   1.0000   1.0000   1.0000   1.0000   1.0000   1.0000   1.0000
     1.0000   1.0000   1.0000   1.0000   1.0000   1.0000   1.0000   1.0000
     1.0000   1.0000   1.0000   1.0000   1.0000   1.0000   1.0000   1.0000
     1.0000   1.0000   1.0000   1.0000   1.0000   1.0000   1.0000   1.0000
     1.0000   1.0000   1.0000   1.0000   1.0000   1.0000   1.0000   1.0000
     1.0000   1.0000   1.0000   1.0000   1.0000   1.0000   1.0000   1.0000
     1.0000   1.0000   1.0000   1.0000   1.0000   1.0000   1.0000   1.0000
     1.0000   1.0000   1.0000   1.0000   1.0000   1.0000   1.0000   1.0000
     1.0000   0.9998   0.0000   0.0000   0.0000   0.0000   0.0000   0.0000
     0.0000   0.0000   0.0000   0.0000   0.0000   0.0000   0.0000   0.0000
     0.0000   0.0000   0.0000   0.0000   0.0000   0.0000   0.0000

          k = 0.0000-0.7071 0.0000 ( 25492 PWs)   bands (ev):

    -6.1757  -6.1755  -5.5220  -5.5220  -5.5218  -5.5218  -5.1360  -5.1358
    -5.1258  -5.1258  -5.1256  -5.1256  -5.0446  -5.0446  -5.0281  -5.0281
    -5.0281  -5.0281  -4.9645  -4.9645  -4.6541  -4.6541  -4.6541  -4.6541
    -4.3781  -4.3780  -4.3155  -4.3154  -4.2312  -4.2312  -4.2310  -4.2310
    -4.1206  -4.1206  -4.1206  -4.1206  -3.9858  -3.9857  -3.7573  -3.7573
    -3.7572  -3.7571  -3.6985  -3.6983  -3.6634  -3.6633  -3.6633  -3.6632
    -3.4737  -3.4737  -3.4736  -3.4736  -3.1831  -3.1830  -3.1560  -3.1560
    -3.1560  -3.1560  -2.9664  -2.9664  -2.9632  -2.9631  -2.9164  -2.9164
    -2.9163  -2.9163  -2.7767  -2.7767  -2.7767  -2.7767  -2.6281  -2.6281
    -2.6280  -2.6280  -2.5356  -2.5356  -2.3689  -2.3688  -2.3150  -2.3150
    -2.3149  -2.3149  -2.2284  -2.2284  -2.1799  -2.1799  -2.1561  -2.1560
    -1.9895  -1.9894  -1.9894  -1.9894  -1.9659  -1.9659  -1.9658  -1.9658
    -0.1749  -0.1748  -0.0283  -0.0283  -0.0282  -0.0282   0.8119   0.8119
     1.6152   1.6152   1.6152   1.6152   2.1222   2.1222   2.1223   2.1223
     3.5509   3.5509   4.0158   4.0159   4.0162   4.0168   4.1602

     occupation numbers 
     1.0000   1.0000   1.0000   1.0000   1.0000   1.0000   1.0000   1.0000
     1.0000   1.0000   1.0000   1.0000   1.0000   1.0000   1.0000   1.0000
     1.0000   1.0000   1.0000   1.0000   1.0000   1.0000   1.0000   1.0000
     1.0000   1.0000   1.0000   1.0000   1.0000   1.0000   1.0000   1.0000
     1.0000   1.0000   1.0000   1.0000   1.0000   1.0000   1.0000   1.0000
     1.0000   1.0000   1.0000   1.0000   1.0000   1.0000   1.0000   1.0000
     1.0000   1.0000   1.0000   1.0000   1.0000   1.0000   1.0000   1.0000
     1.0000   1.0000   1.0000   1.0000   1.0000   1.0000   1.0000   1.0000
     1.0000   1.0000   1.0000   1.0000   1.0000   1.0000   1.0000   1.0000
     1.0000   1.0000   1.0000   1.0000   1.0000   1.0000   1.0000   1.0000
     1.0000   1.0000   1.0000   1.0000   1.0000   1.0000   1.0000   1.0000
     1.0000   1.0000   1.0000   1.0000   1.0000   1.0000   1.0000   1.0000
     0.0000   0.0000   0.0000   0.0000   0.0000   0.0000   0.0000   0.0000
     0.0000   0.0000   0.0000   0.0000   0.0000   0.0000   0.0000   0.0000
     0.0000   0.0000   0.0000   0.0000   0.0000   0.0000   0.0000

          k = 0.2500 0.0000 0.0000 ( 25556 PWs)   bands (ev):

    -6.7998  -6.4476  -6.0340  -5.8259  -5.7497  -5.7320  -5.0983  -5.0983
    -4.9154  -4.9154  -4.8195  -4.8195  -4.7959  -4.7959  -4.7143  -4.7143
    -4.7137  -4.7137  -4.7107  -4.7107  -4.6993  -4.6993  -4.6556  -4.6556
    -4.5424  -4.5424  -4.4595  -4.4595  -4.4594  -4.4173  -4.3652  -4.3652
    -4.1371  -4.1107  -3.9320  -3.8957  -3.8379  -3.7713  -3.6566  -3.6566
    -3.5837  -3.5837  -3.5484  -3.5484  -3.4506  -3.3909  -3.3696  -3.3587
    -3.3535  -3.2629  -3.2629  -3.2210  -3.1635  -3.1266  -3.1266  -3.1237
    -3.1236  -3.1155  -3.1155  -3.0832  -3.0832  -3.0601  -3.0601  -3.0314
    -2.9042  -2.9042  -2.8836  -2.8573  -2.7257  -2.7257  -2.6006  -2.6006
    -2.5698  -2.4823  -2.4823  -2.4526  -2.4448  -2.4448  -2.4174  -2.4174
    -2.3413  -2.3413  -2.2871  -2.2871  -2.2814  -2.2394  -2.1641  -2.1641
    -2.1475  -2.0371  -2.0371  -1.9851  -1.8741  -1.8414  -1.8355  -1.7296
    -1.7296  -1.1925  -0.8091  -0.8091  -0.8057  -0.4242   0.6249   0.6249
     1.2987   1.4921   1.4921   1.5462   1.5878   1.5878   2.6309   3.0259
     3.2840   3.7884   4.3395   4.3395   4.6753   4.6754   4.7337

     occupation numbers 
     1.0000   1.0000   1.0000   1.0000   1.0000   1.0000   1.0000   1.0000
     1.0000   1.0000   1.0000   1.0000   1.0000   1.0000   1.0000   1.0000
     1.0000   1.0000   1.0000   1.0000   1.0000   1.0000   1.0000   1.0000
     1.0000   1.0000   1.0000   1.0000   1.0000   1.0000   1.0000   1.0000
     1.0000   1.0000   1.0000   1.0000   1.0000   1.0000   1.0000   1.0000
     1.0000   1.0000   1.0000   1.0000   1.0000   1.0000   1.0000   1.0000
     1.0000   1.0000   1.0000   1.0000   1.0000   1.0000   1.0000   1.0000
     1.0000   1.0000   1.0000   1.0000   1.0000   1.0000   1.0000   1.0000
     1.0000   1.0000   1.0000   1.0000   1.0000   1.0000   1.0000   1.0000
     1.0000   1.0000   1.0000   1.0000   1.0000   1.0000   1.0000   1.0000
     1.0000   1.0000   1.0000   1.0000   1.0000   1.0000   1.0000   1.0000
     1.0000   1.0000   1.0000   1.0000   1.0000   1.0000   1.0000   1.0000
     1.0000   1.0000   1.0000   1.0000   1.0000   0.0000   0.0000   0.0000
     0.0000   0.0000   0.0000   0.0000   0.0000   0.0000   0.0000   0.0000
     0.0000   0.0000   0.0000   0.0000   0.0000   0.0000   0.0000

          k = 0.2500 0.3536 0.0000 ( 25520 PWs)   bands (ev):

    -6.6202  -6.2629  -5.8472  -5.6477  -5.5781  -5.5669  -5.4875  -5.1467
    -5.0323  -4.9958  -4.9775  -4.9537  -4.9365  -4.9210  -4.8952  -4.8868
    -4.7557  -4.7540  -4.7508  -4.6993  -4.6091  -4.5792  -4.5330  -4.5056
    -4.4959  -4.4650  -4.4479  -4.4330  -4.4082  -4.3963  -4.3883  -4.3139
    -4.1372  -4.1026  -4.0981  -3.9648  -3.9045  -3.8803  -3.8352  -3.8040
    -3.6367  -3.6331  -3.6032  -3.5918  -3.5418  -3.5300  -3.5276  -3.4866
    -3.4575  -3.4414  -3.3544  -3.3540  -3.2895  -3.2838  -3.1944  -3.1689
    -3.1479  -3.0778  -3.0575  -2.9998  -2.9716  -2.9649  -2.9471  -2.9424
    -2.9288  -2.8655  -2.7898  -2.7727  -2.7512  -2.7481  -2.6884  -2.6536
    -2.6076  -2.5625  -2.5340  -2.5272  -2.5075  -2.4108  -2.3520  -2.3190
    -2.2865  -2.2746  -2.2729  -2.2429  -2.1740  -2.1427  -2.1403  -2.1288
    -2.0853  -2.0641  -2.0205  -2.0108  -1.9881  -1.9527  -1.9006  -1.3618
    -0.9935  -0.8893  -0.6082  -0.5382  -0.2605  -0.1007   0.3355   0.5733
     0.7508   1.5913   1.7492   1.8455   2.7297   2.7979   2.8786   2.8801
     3.1778   3.2986   3.3774   3.4715   3.5738   4.0530   4.1718

     occupation numbers 
     1.0000   1.0000   1.0000   1.0000   1.0000   1.0000   1.0000   1.0000
     1.0000   1.0000   1.0000   1.0000   1.0000   1.0000   1.0000   1.0000
     1.0000   1.0000   1.0000   1.0000   1.0000   1.0000   1.0000   1.0000
     1.0000   1.0000   1.0000   1.0000   1.0000   1.0000   1.0000   1.0000
     1.0000   1.0000   1.0000   1.0000   1.0000   1.0000   1.0000   1.0000
     1.0000   1.0000   1.0000   1.0000   1.0000   1.0000   1.0000   1.0000
     1.0000   1.0000   1.0000   1.0000   1.0000   1.0000   1.0000   1.0000
     1.0000   1.0000   1.0000   1.0000   1.0000   1.0000   1.0000   1.0000
     1.0000   1.0000   1.0000   1.0000   1.0000   1.0000   1.0000   1.0000
     1.0000   1.0000   1.0000   1.0000   1.0000   1.0000   1.0000   1.0000
     1.0000   1.0000   1.0000   1.0000   1.0000   1.0000   1.0000   1.0000
     1.0000   1.0000   1.0000   1.0000   1.0000   1.0000   1.0000   1.0000
     1.0000   1.0000   0.9121   0.1416   0.0000   0.0000   0.0000   0.0000
     0.0000   0.0000   0.0000   0.0000   0.0000   0.0000   0.0000   0.0000
     0.0000   0.0000   0.0000   0.0000   0.0000   0.0000   0.0000

          k = 0.2500-0.7071 0.0000 ( 25554 PWs)   bands (ev):

    -6.1227  -6.1225  -5.7549  -5.7547  -5.3349  -5.3347  -5.1604  -5.1601
    -5.1260  -5.1258  -5.1072  -5.1070  -5.0303  -5.0303  -5.0263  -5.0263
    -5.0215  -5.0215  -4.9561  -4.9561  -4.7756  -4.7756  -4.5676  -4.5676
    -4.4346  -4.4344  -4.3728  -4.3726  -4.2158  -4.2156  -4.1121  -4.1121
    -4.0798  -4.0797  -4.0765  -4.0764  -4.0102  -4.0101  -3.9046  -3.9045
    -3.7183  -3.7183  -3.6944  -3.6942  -3.6793  -3.6792  -3.6725  -3.6724
    -3.4443  -3.4443  -3.3777  -3.3775  -3.2073  -3.2072  -3.1384  -3.1384
    -3.1110  -3.1110  -3.1012  -3.1011  -2.9857  -2.9857  -2.9309  -2.9309
    -2.9132  -2.9132  -2.7970  -2.7968  -2.6570  -2.6570  -2.6500  -2.6499
    -2.5605  -2.5604  -2.5408  -2.5408  -2.4216  -2.4215  -2.3891  -2.3891
    -2.2553  -2.2553  -2.2065  -2.2065  -2.1810  -2.1810  -2.1702  -2.1701
    -2.1081  -2.1081  -2.0849  -2.0849  -1.9123  -1.9123  -1.6833  -1.6832
    -0.6045  -0.6044  -0.1170  -0.1169   0.1536   0.1537   0.8696   0.8697
     1.2864   1.2864   1.9878   1.9878   2.3260   2.3261   2.5902   2.5903
     3.5382   3.5383   3.6076   3.6077   3.6729   3.6729   3.9799

     occupation numbers 
     1.0000   1.0000   1.0000   1.0000   1.0000   1.0000   1.0000   1.0000
     1.0000   1.0000   1.0000   1.0000   1.0000   1.0000   1.0000   1.0000
     1.0000   1.0000   1.0000   1.0000   1.0000   1.0000   1.0000   1.0000
     1.0000   1.0000   1.0000   1.0000   1.0000   1.0000   1.0000   1.0000
     1.0000   1.0000   1.0000   1.0000   1.0000   1.0000   1.0000   1.0000
     1.0000   1.0000   1.0000   1.0000   1.0000   1.0000   1.0000   1.0000
     1.0000   1.0000   1.0000   1.0000   1.0000   1.0000   1.0000   1.0000
     1.0000   1.0000   1.0000   1.0000   1.0000   1.0000   1.0000   1.0000
     1.0000   1.0000   1.0000   1.0000   1.0000   1.0000   1.0000   1.0000
     1.0000   1.0000   1.0000   1.0000   1.0000   1.0000   1.0000   1.0000
     1.0000   1.0000   1.0000   1.0000   1.0000   1.0000   1.0000   1.0000
     1.0000   1.0000   1.0000   1.0000   1.0000   1.0000   1.0000   1.0000
     0.8900   0.8891   0.0000   0.0000   0.0000   0.0000   0.0000   0.0000
     0.0000   0.0000   0.0000   0.0000   0.0000   0.0000   0.0000   0.0000
     0.0000   0.0000   0.0000   0.0000   0.0000   0.0000   0.0000

          k =-0.5000 0.0000 0.0000 ( 25576 PWs)   bands (ev):

    -6.6557  -6.6557  -5.9046  -5.9046  -5.7356  -5.7356  -5.0117  -5.0117
    -5.0116  -5.0116  -4.7470  -4.7470  -4.7468  -4.7468  -4.7443  -4.7443
    -4.7443  -4.7443  -4.6976  -4.6975  -4.6975  -4.6975  -4.6716  -4.6716
    -4.6716  -4.6716  -4.4708  -4.4707  -4.3917  -4.3917  -4.3915  -4.3915
    -3.9642  -3.9642  -3.9521  -3.9521  -3.9268  -3.9268  -3.5933  -3.5933
    -3.5933  -3.5932  -3.4145  -3.4145  -3.4144  -3.4144  -3.3825  -3.3825
    -3.3695  -3.3695  -3.2984  -3.2984  -3.1297  -3.1297  -3.1297  -3.1297
    -3.0778  -3.0778  -3.0778  -3.0778  -3.0047  -3.0047  -2.9990  -2.9990
    -2.9988  -2.9988  -2.9446  -2.9446  -2.6620  -2.6620  -2.6619  -2.6619
    -2.5008  -2.5008  -2.4820  -2.4820  -2.4819  -2.4819  -2.3756  -2.3756
    -2.3756  -2.3756  -2.2252  -2.2252  -2.2179  -2.2179  -2.2179  -2.2179
    -1.9374  -1.9374  -1.9374  -1.9374  -1.9206  -1.9206  -1.8427  -1.8427
    -1.8362  -1.8362  -0.6327  -0.6327  -0.1259  -0.1259  -0.1259  -0.1259
     1.5832   1.5832   1.5832   1.5832   1.9245   1.9246   2.6378   2.6378
     3.1519   3.1520   4.7960   4.7961   4.7961   4.7964   4.8358

     occupation numbers 
     1.0000   1.0000   1.0000   1.0000   1.0000   1.0000   1.0000   1.0000
     1.0000   1.0000   1.0000   1.0000   1.0000   1.0000   1.0000   1.0000
     1.0000   1.0000   1.0000   1.0000   1.0000   1.0000   1.0000   1.0000
     1.0000   1.0000   1.0000   1.0000   1.0000   1.0000   1.0000   1.0000
     1.0000   1.0000   1.0000   1.0000   1.0000   1.0000   1.0000   1.0000
     1.0000   1.0000   1.0000   1.0000   1.0000   1.0000   1.0000   1.0000
     1.0000   1.0000   1.0000   1.0000   1.0000   1.0000   1.0000   1.0000
     1.0000   1.0000   1.0000   1.0000   1.0000   1.0000   1.0000   1.0000
     1.0000   1.0000   1.0000   1.0000   1.0000   1.0000   1.0000   1.0000
     1.0000   1.0000   1.0000   1.0000   1.0000   1.0000   1.0000   1.0000
     1.0000   1.0000   1.0000   1.0000   1.0000   1.0000   1.0000   1.0000
     1.0000   1.0000   1.0000   1.0000   1.0000   1.0000   1.0000   1.0000
     1.0000   1.0000   0.9862   0.9862   0.0000   0.0000   0.0000   0.0000
     0.0000   0.0000   0.0000   0.0000   0.0000   0.0000   0.0000   0.0000
     0.0000   0.0000   0.0000   0.0000   0.0000   0.0000   0.0000

          k =-0.5000 0.3536 0.0000 ( 25526 PWs)   bands (ev):

    -6.4741  -6.4741  -5.7216  -5.7216  -5.5671  -5.5671  -5.3480  -5.3480
    -5.0010  -5.0010  -4.9557  -4.9557  -4.9237  -4.9237  -4.8551  -4.8551
    -4.8248  -4.8248  -4.6537  -4.6537  -4.6523  -4.6523  -4.5207  -4.5207
    -4.4853  -4.4853  -4.4567  -4.4566  -4.4129  -4.4129  -4.3565  -4.3565
    -4.0445  -4.0445  -3.9805  -3.9805  -3.9338  -3.9338  -3.9016  -3.9016
    -3.5972  -3.5972  -3.5773  -3.5773  -3.5472  -3.5472  -3.4652  -3.4652
    -3.3530  -3.3530  -3.3383  -3.3383  -3.2678  -3.2678  -3.2376  -3.2376
    -3.2255  -3.2255  -3.0602  -3.0602  -2.9325  -2.9325  -2.9324  -2.9324
    -2.8742  -2.8741  -2.8512  -2.8512  -2.7408  -2.7407  -2.5981  -2.5981
    -2.5797  -2.5797  -2.5719  -2.5719  -2.3989  -2.3989  -2.3587  -2.3587
    -2.2864  -2.2864  -2.2010  -2.2010  -2.1959  -2.1959  -2.1297  -2.1297
    -2.1195  -2.1195  -2.0614  -2.0614  -1.9666  -1.9665  -1.5735  -1.5735
    -0.7824  -0.7824  -0.7614  -0.7614  -0.4419  -0.4419   0.6914   0.6914
     0.9998   0.9998   2.1898   2.1898   2.8134   2.8134   2.9046   2.9046
     3.0882   3.0882   3.3145   3.3146   3.8039   3.8039   4.5096

     occupation numbers 
     1.0000   1.0000   1.0000   1.0000   1.0000   1.0000   1.0000   1.0000
     1.0000   1.0000   1.0000   1.0000   1.0000   1.0000   1.0000   1.0000
     1.0000   1.0000   1.0000   1.0000   1.0000   1.0000   1.0000   1.0000
     1.0000   1.0000   1.0000   1.0000   1.0000   1.0000   1.0000   1.0000
     1.0000   1.0000   1.0000   1.0000   1.0000   1.0000   1.0000   1.0000
     1.0000   1.0000   1.0000   1.0000   1.0000   1.0000   1.0000   1.0000
     1.0000   1.0000   1.0000   1.0000   1.0000   1.0000   1.0000   1.0000
     1.0000   1.0000   1.0000   1.0000   1.0000   1.0000   1.0000   1.0000
     1.0000   1.0000   1.0000   1.0000   1.0000   1.0000   1.0000   1.0000
     1.0000   1.0000   1.0000   1.0000   1.0000   1.0000   1.0000   1.0000
     1.0000   1.0000   1.0000   1.0000   1.0000   1.0000   1.0000   1.0000
     1.0000   1.0000   1.0000   1.0000   1.0000   1.0000   1.0000   1.0000
     1.0000   1.0000   1.0000   1.0000   0.0000   0.0000   0.0000   0.0000
     0.0000   0.0000   0.0000   0.0000   0.0000   0.0000   0.0000   0.0000
     0.0000   0.0000   0.0000   0.0000   0.0000   0.0000   0.0000

          k =-0.5000-0.7071 0.0000 ( 25560 PWs)   bands (ev):

    -5.9726  -5.9726  -5.9724  -5.9724  -5.2209  -5.2209  -5.2207  -5.2207
    -5.1089  -5.1089  -5.1087  -5.1087  -5.0304  -5.0304  -5.0143  -5.0143
    -5.0143  -5.0142  -4.8926  -4.8926  -4.8925  -4.8925  -4.5375  -4.5375
    -4.4465  -4.4465  -4.4463  -4.4463  -4.0664  -4.0664  -4.0662  -4.0662
    -4.0644  -4.0644  -4.0644  -4.0644  -4.0229  -4.0229  -4.0229  -4.0229
    -3.7236  -3.7236  -3.7234  -3.7234  -3.6850  -3.6850  -3.6849  -3.6849
    -3.2868  -3.2868  -3.2868  -3.2868  -3.2765  -3.2765  -3.2764  -3.2764
    -3.0732  -3.0732  -3.0407  -3.0407  -3.0407  -3.0407  -3.0203  -3.0203
    -2.8527  -2.8527  -2.8526  -2.8526  -2.5746  -2.5746  -2.5746  -2.5746
    -2.5360  -2.5360  -2.5360  -2.5360  -2.4760  -2.4760  -2.4760  -2.4760
    -2.2065  -2.2065  -2.2064  -2.2064  -2.1699  -2.1699  -2.1699  -2.1699
    -2.1576  -2.1576  -2.1576  -2.1576  -1.8831  -1.8831  -1.2209  -1.2209
    -1.2208  -1.2208   0.0294   0.0294   0.0295   0.0295   1.0335   1.0335
     1.0335   1.0335   2.2124   2.2124   2.8757   2.8757   2.8758   2.8758
     3.3792   3.3793   3.5898   3.5898   3.5900   3.5901   3.7676

     occupation numbers 
     1.0000   1.0000   1.0000   1.0000   1.0000   1.0000   1.0000   1.0000
     1.0000   1.0000   1.0000   1.0000   1.0000   1.0000   1.0000   1.0000
     1.0000   1.0000   1.0000   1.0000   1.0000   1.0000   1.0000   1.0000
     1.0000   1.0000   1.0000   1.0000   1.0000   1.0000   1.0000   1.0000
     1.0000   1.0000   1.0000   1.0000   1.0000   1.0000   1.0000   1.0000
     1.0000   1.0000   1.0000   1.0000   1.0000   1.0000   1.0000   1.0000
     1.0000   1.0000   1.0000   1.0000   1.0000   1.0000   1.0000   1.0000
     1.0000   1.0000   1.0000   1.0000   1.0000   1.0000   1.0000   1.0000
     1.0000   1.0000   1.0000   1.0000   1.0000   1.0000   1.0000   1.0000
     1.0000   1.0000   1.0000   1.0000   1.0000   1.0000   1.0000   1.0000
     1.0000   1.0000   1.0000   1.0000   1.0000   1.0000   1.0000   1.0000
     1.0000   1.0000   1.0000   1.0000   1.0000   1.0000   1.0000   1.0000
     1.0000   1.0000   0.0000   0.0000   0.0000   0.0000   0.0000   0.0000
     0.0000   0.0000   0.0000   0.0000   0.0000   0.0000   0.0000   0.0000
     0.0000   0.0000   0.0000   0.0000   0.0000   0.0000   0.0000

     the Fermi energy is    -0.5691 ev

!    total energy              =   -2068.87855130 Ry
     estimated scf accuracy    <       0.00000075 Ry
     smearing contrib. (-TS)   =      -0.00073706 Ry
     internal energy E=F+TS    =   -2068.87781424 Ry

     The total energy is F=E-TS. E is the sum of the following terms:
     one-electron contribution =   -3141.09365883 Ry
     hartree contribution      =    1708.95146221 Ry
     xc contribution           =   -1118.54995699 Ry
     ewald contribution        =     481.81433938 Ry

     convergence has been achieved in   9 iterations

     negative rho (up, down):  6.539E-05 0.000E+00

     Forces acting on atoms (cartesian axes, Ry/au):

     atom    1 type  1   force =    -0.00001090    0.00000000    0.03212728
     atom    2 type  1   force =     0.00000000    0.00005152   -0.03213726
     atom    3 type  1   force =    -0.00001503    0.00004706    0.03214382
     atom    4 type  1   force =     0.00000000    0.00000000   -0.03214997
     atom    5 type  1   force =    -0.00001503   -0.00004706    0.03214382
     atom    6 type  1   force =     0.00000000   -0.00005152   -0.03213726
     atom    7 type  1   force =     0.00000000    0.00000000    0.03216924
     atom    8 type  1   force =    -0.00002807    0.00004018   -0.03215018
     atom    9 type  1   force =     0.00000000    0.00003993    0.03217952
     atom   10 type  1   force =    -0.00003031    0.00000000   -0.03216645
     atom   11 type  1   force =     0.00000000   -0.00003993    0.03217952
     atom   12 type  1   force =    -0.00002807   -0.00004018   -0.03215018
     atom   13 type  1   force =     0.00001090    0.00000000    0.03212728
     atom   14 type  1   force =     0.00002807    0.00004018   -0.03215018
     atom   15 type  1   force =     0.00001503    0.00004706    0.03214382
     atom   16 type  1   force =     0.00003031    0.00000000   -0.03216645
     atom   17 type  1   force =     0.00001503   -0.00004706    0.03214382
     atom   18 type  1   force =     0.00002807   -0.00004018   -0.03215018
     The non-local contrib.  to forces
     atom    1 type  1   force =     0.00001050    0.00000000   -0.03839475
     atom    2 type  1   force =    -0.00000000    0.00002071    0.03838914
     atom    3 type  1   force =     0.00000821    0.00001742   -0.03840390
     atom    4 type  1   force =     0.00000000    0.00000000    0.03840344
     atom    5 type  1   force =     0.00000821   -0.00001742   -0.03840390
     atom    6 type  1   force =     0.00000000   -0.00002071    0.03838914
     atom    7 type  1   force =     0.00000000    0.00000000   -0.03839143
     atom    8 type  1   force =     0.00000061    0.00001075    0.03839404
     atom    9 type  1   force =     0.00000000    0.00000958   -0.03840342
     atom   10 type  1   force =    -0.00000183    0.00000000    0.03840527
     atom   11 type  1   force =     0.00000000   -0.00000958   -0.03840342
     atom   12 type  1   force =     0.00000061   -0.00001075    0.03839404
     atom   13 type  1   force =    -0.00001050    0.00000000   -0.03839475
     atom   14 type  1   force =    -0.00000061    0.00001075    0.03839404
     atom   15 type  1   force =    -0.00000821    0.00001742   -0.03840390
     atom   16 type  1   force =     0.00000183    0.00000000    0.03840527
     atom   17 type  1   force =    -0.00000821   -0.00001742   -0.03840390
     atom   18 type  1   force =    -0.00000061   -0.00001075    0.03839404
     The ionic contribution  to forces
     atom    1 type  1   force =     0.00000000    0.00003298  -20.43318710
     atom    2 type  1   force =    -0.00000000    0.00003544   20.43317046
     atom    3 type  1   force =     0.00000000    0.00000649  -20.43317046
     atom    4 type  1   force =    -0.00000000   -0.00000649   20.43317046
     atom    5 type  1   force =     0.00000000   -0.00003544  -20.43317046
     atom    6 type  1   force =    -0.00000000   -0.00003298   20.43318710
     atom    7 type  1   force =    -0.00000000    0.00003298  -20.43318710
     atom    8 type  1   force =    -0.00000000    0.00003544   20.43317046
     atom    9 type  1   force =    -0.00000000    0.00000649  -20.43317046
     atom   10 type  1   force =    -0.00000000   -0.00000649   20.43317046
     atom   11 type  1   force =     0.00000000   -0.00003544  -20.43317046
     atom   12 type  1   force =    -0.00000000   -0.00003298   20.43318710
     atom   13 type  1   force =     0.00000000    0.00003298  -20.43318710
     atom   14 type  1   force =     0.00000000    0.00003544   20.43317046
     atom   15 type  1   force =     0.00000000    0.00000649  -20.43317046
     atom   16 type  1   force =     0.00000000   -0.00000649   20.43317046
     atom   17 type  1   force =     0.00000000   -0.00003544  -20.43317046
     atom   18 type  1   force =    -0.00000000   -0.00003298   20.43318710
     The local contribution  to forces
     atom    1 type  1   force =     0.00000905   -0.00000000   20.48648066
     atom    2 type  1   force =    -0.00000000   -0.00025897  -20.48644278
     atom    3 type  1   force =     0.00002810   -0.00023443   20.48644231
     atom    4 type  1   force =     0.00000000   -0.00004688  -20.48641442
     atom    5 type  1   force =     0.00002810    0.00014066   20.48644231
     atom    6 type  1   force =     0.00000000    0.00016520  -20.48644278
     atom    7 type  1   force =     0.00000000   -0.00000000   20.48644617
     atom    8 type  1   force =     0.00004654   -0.00022826  -20.48644323
     atom    9 type  1   force =     0.00000000   -0.00021452   20.48641310
     atom   10 type  1   force =     0.00005815   -0.00004688  -20.48641071
     atom   11 type  1   force =     0.00000000    0.00012076   20.48641310
     atom   12 type  1   force =     0.00004654    0.00013449  -20.48644323
     atom   13 type  1   force =    -0.00000905   -0.00000000   20.48648066
     atom   14 type  1   force =    -0.00004654   -0.00022826  -20.48644323
     atom   15 type  1   force =    -0.00002810   -0.00023443   20.48644231
     atom   16 type  1   force =    -0.00005815   -0.00004688  -20.48641071
     atom   17 type  1   force =    -0.00002810    0.00014066   20.48644231
     atom   18 type  1   force =    -0.00004654    0.00013449  -20.48644323
     The core correction contribution to forces
     atom    1 type  1   force =     0.00001192   -0.00000000    0.01703948
     atom    2 type  1   force =     0.00000000   -0.00001193   -0.01704898
     atom    3 type  1   force =     0.00001230   -0.00001139    0.01703859
     atom    4 type  1   force =     0.00000000   -0.00001515   -0.01705047
     atom    5 type  1   force =     0.00001230   -0.00001891    0.01703859
     atom    6 type  1   force =     0.00000000   -0.00001837   -0.01704898
     atom    7 type  1   force =     0.00000000    0.00000000    0.01704802
     atom    8 type  1   force =     0.00000737   -0.00001060   -0.01704095
     atom    9 type  1   force =     0.00000000   -0.00001091    0.01704790
     atom   10 type  1   force =     0.00000741   -0.00001515   -0.01704098
     atom   11 type  1   force =    -0.00000000   -0.00001939    0.01704790
     atom   12 type  1   force =     0.00000737   -0.00001970   -0.01704095
     atom   13 type  1   force =    -0.00001192   -0.00000000    0.01703948
     atom   14 type  1   force =    -0.00000737   -0.00001060   -0.01704095
     atom   15 type  1   force =    -0.00001230   -0.00001139    0.01703859
     atom   16 type  1   force =    -0.00000741   -0.00001515   -0.01704098
     atom   17 type  1   force =    -0.00001230   -0.00001891    0.01703859
     atom   18 type  1   force =    -0.00000737   -0.00001970   -0.01704095
     The Hubbard contrib.    to forces
     atom    1 type  1   force =     0.00000000    0.00000000    0.00000000
     atom    2 type  1   force =     0.00000000    0.00000000    0.00000000
     atom    3 type  1   force =     0.00000000    0.00000000    0.00000000
     atom    4 type  1   force =     0.00000000    0.00000000    0.00000000
     atom    5 type  1   force =     0.00000000    0.00000000    0.00000000
     atom    6 type  1   force =     0.00000000    0.00000000    0.00000000
     atom    7 type  1   force =     0.00000000    0.00000000    0.00000000
     atom    8 type  1   force =     0.00000000    0.00000000    0.00000000
     atom    9 type  1   force =     0.00000000    0.00000000    0.00000000
     atom   10 type  1   force =     0.00000000    0.00000000    0.00000000
     atom   11 type  1   force =     0.00000000    0.00000000    0.00000000
     atom   12 type  1   force =     0.00000000    0.00000000    0.00000000
     atom   13 type  1   force =     0.00000000    0.00000000    0.00000000
     atom   14 type  1   force =     0.00000000    0.00000000    0.00000000
     atom   15 type  1   force =     0.00000000    0.00000000    0.00000000
     atom   16 type  1   force =     0.00000000    0.00000000    0.00000000
     atom   17 type  1   force =     0.00000000    0.00000000    0.00000000
     atom   18 type  1   force =     0.00000000    0.00000000    0.00000000
     The SCF correction term to forces
     atom    1 type  1   force =    -0.00004237   -0.00000001    0.00018472
     atom    2 type  1   force =    -0.00000000    0.00020547   -0.00021770
     atom    3 type  1   force =    -0.00006365    0.00019248    0.00023301
     atom    4 type  1   force =    -0.00000000    0.00000001   -0.00026326
     atom    5 type  1   force =    -0.00006365   -0.00019246    0.00023301
     atom    6 type  1   force =    -0.00000000   -0.00020545   -0.00021770
     atom    7 type  1   force =     0.00000000   -0.00000001    0.00024930
     atom    8 type  1   force =    -0.00008259    0.00017205   -0.00024310
     atom    9 type  1   force =    -0.00000000    0.00017281    0.00028813
     atom   10 type  1   force =    -0.00009403    0.00000001   -0.00029476
     atom   11 type  1   force =    -0.00000000   -0.00017279    0.00028813
     atom   12 type  1   force =    -0.00008259   -0.00017204   -0.00024310
     atom   13 type  1   force =     0.00004237   -0.00000001    0.00018472
     atom   14 type  1   force =     0.00008259    0.00017205   -0.00024310
     atom   15 type  1   force =     0.00006365    0.00019248    0.00023301
     atom   16 type  1   force =     0.00009403    0.00000001   -0.00029476
     atom   17 type  1   force =     0.00006365   -0.00019246    0.00023301
     atom   18 type  1   force =     0.00008259   -0.00017204   -0.00024310

     Total force =     0.136405     Total SCF correction =     0.001250


     Computing stress (Cartesian axis) and pressure


     negative rho (up, down):  6.539E-05 0.000E+00
          total   stress  (Ry/bohr**3)                   (kbar)     P=      -20.31
  -0.00010243   0.00000000   0.00000000          -15.07        0.00        0.00
   0.00000000  -0.00022256   0.00000000            0.00      -32.74        0.00
   0.00000000   0.00000000  -0.00008917            0.00        0.00      -13.12

     kinetic stress (kbar)   4851.52      0.00      0.00
                                0.00   4782.84      0.00
                                0.00      0.00   4892.42

     local   stress (kbar) -43542.73     -0.00      0.00
                               -0.00 -46465.90      0.00
                                0.00      0.00  55461.59

     nonloc. stress (kbar)  -3100.45      0.00      0.00
                                0.00  -3091.86      0.00
                                0.00      0.00  -3102.12

     hartree stress (kbar)  24462.29      0.00     -0.00
                                0.00  25515.74      0.00
                               -0.00      0.00 -22660.39

     exc-cor stress (kbar)  12483.42      0.00     -0.00
                                0.00  12487.25     -0.00
                               -0.00     -0.00  12478.39

     corecor stress (kbar) -14405.89     -0.00      0.00
                               -0.00 -14398.67     -0.00
                                0.00     -0.00 -14410.20

     ewald   stress (kbar)  19236.78      0.00     -0.00
                                0.00  21137.85     -0.00
                               -0.00     -0.00 -32672.81

     hubbard stress (kbar)      0.00      0.00      0.00
                                0.00      0.00      0.00
                                0.00      0.00      0.00

     DFT-D   stress (kbar)      0.00      0.00      0.00
                                0.00      0.00      0.00
                                0.00      0.00      0.00

     XDM     stress (kbar)      0.00      0.00      0.00
                                0.00      0.00      0.00
                                0.00      0.00      0.00

     dft-nl  stress (kbar)      0.00      0.00      0.00
                                0.00      0.00      0.00
                                0.00      0.00      0.00

     TS-vdW  stress (kbar)      0.00      0.00      0.00
                                0.00      0.00      0.00
                                0.00      0.00      0.00



     BFGS Geometry Optimization
     Energy error            =      0.0E+00
     Gradient error          =      3.2E-02

     number of scf cycles    =   1
     number of bfgs steps    =   0

     energy   new            =   -2068.8785512970 Ry

     new trust radius        =       0.0321795457 bohr
     new conv_thr            =       0.0000010000 Ry


ATOMIC_POSITIONS (angstrom)
Au            2.0391192332        0.0000000000        0.0170010253
Au            0.0000000000        1.4419062654        1.4248726924
Au            2.0391170444        2.8837829052        0.0170097769
Au            0.0000000000        4.3256370000        1.4248659688
Au            2.0391170444        5.7674910948        0.0170097769
Au            0.0000000000        7.2093677346        1.4248726924
Au            6.1173750000        0.0000000000        0.0170232271
Au            4.0782351481        1.4419002626        1.4248658561
Au            6.1173750000        2.8837791323        0.0170286691
Au            4.0782339601        4.3256370000        1.4248572492
Au            6.1173750000        5.7674948677        0.0170286691
Au            4.0782351481        7.2093737374        1.4248658561
Au           10.1956307668        0.0000000000        0.0170010253
Au            8.1565148519        1.4419002626        1.4248658561
Au           10.1956329556        2.8837829052        0.0170097769
Au            8.1565160399        4.3256370000        1.4248572492
Au           10.1956329556        5.7674910948        0.0170097769
Au            8.1565148519        7.2093737374        1.4248658561



     Writing output data file ./surface.save/
     NEW-OLD atomic charge density approx. for the potential

     Check: negative core charge=   -0.000004

     negative rho (up, down):  6.602E-05 0.000E+00

     total cpu time spent up to now is       65.0 secs

     Self-consistent Calculation

     iteration #  1     ecut=    30.00 Ry     beta= 0.30
     Davidson diagonalization with overlap
     ethr =  1.00E-06,  avg # of iterations = 10.4

     negative rho (up, down):  6.659E-05 0.000E+00

     total cpu time spent up to now is       78.9 secs

     total energy              =   -2068.89663894 Ry
     estimated scf accuracy    <       0.00021743 Ry

     iteration #  2     ecut=    30.00 Ry     beta= 0.30
     Davidson diagonalization with overlap
     ethr =  1.10E-07,  avg # of iterations =  3.3

     negative rho (up, down):  6.788E-05 0.000E+00

     total cpu time spent up to now is       83.6 secs

     total energy              =   -2068.89666784 Ry
     estimated scf accuracy    <       0.00008481 Ry

     iteration #  3     ecut=    30.00 Ry     beta= 0.30
     Davidson diagonalization with overlap
     ethr =  4.28E-08,  avg # of iterations =  2.0

     negative rho (up, down):  6.926E-05 0.000E+00

     total cpu time spent up to now is       87.8 secs

     total energy              =   -2068.89667191 Ry
     estimated scf accuracy    <       0.00002176 Ry

     iteration #  4     ecut=    30.00 Ry     beta= 0.30
     Davidson diagonalization with overlap
     ethr =  1.10E-08,  avg # of iterations =  2.8

     negative rho (up, down):  6.972E-05 0.000E+00

     total cpu time spent up to now is       92.4 secs

     total energy              =   -2068.89667505 Ry
     estimated scf accuracy    <       0.00000845 Ry

     iteration #  5     ecut=    30.00 Ry     beta= 0.30
     Davidson diagonalization with overlap
     ethr =  4.27E-09,  avg # of iterations =  2.1

     negative rho (up, down):  7.006E-05 0.000E+00

     total cpu time spent up to now is       96.6 secs

     total energy              =   -2068.89667663 Ry
     estimated scf accuracy    <       0.00000368 Ry

     iteration #  6     ecut=    30.00 Ry     beta= 0.30
     Davidson diagonalization with overlap
     c_bands:  1 eigenvalues not converged
     ethr =  1.86E-09,  avg # of iterations =  3.9

     negative rho (up, down):  7.034E-05 0.000E+00

     total cpu time spent up to now is      100.9 secs

     total energy              =   -2068.89667705 Ry
     estimated scf accuracy    <       0.00000114 Ry

     iteration #  7     ecut=    30.00 Ry     beta= 0.30
     Davidson diagonalization with overlap
     ethr =  5.74E-10,  avg # of iterations =  3.9

     negative rho (up, down):  7.105E-05 0.000E+00

     total cpu time spent up to now is      105.2 secs

     End of self-consistent calculation

          k = 0.0000 0.0000 0.0000 ( 25547 PWs)   bands (ev):

    -6.8940  -6.2561  -6.2561  -5.7992  -5.7992  -5.7599  -5.1748  -5.1748
    -4.8947  -4.8947  -4.8947  -4.8947  -4.8946  -4.8946  -4.7521  -4.7521
    -4.7507  -4.7507  -4.7451  -4.7451  -4.7451  -4.7450  -4.5781  -4.5781
    -4.5781  -4.5781  -4.4335  -4.4186  -4.4186  -4.4186  -4.4186  -4.3364
    -4.3364  -4.1836  -3.9003  -3.8264  -3.8264  -3.6957  -3.6957  -3.6957
    -3.6957  -3.5611  -3.5611  -3.5427  -3.5427  -3.4276  -3.4276  -3.4202
    -3.3385  -3.3385  -3.1805  -3.1805  -3.1805  -3.1805  -3.1676  -3.1675
    -3.1438  -3.1438  -3.1036  -3.1036  -3.1036  -3.1036  -3.0876  -3.0876
    -2.8581  -2.8030  -2.7965  -2.7965  -2.7965  -2.7965  -2.6325  -2.5650
    -2.5650  -2.4329  -2.4329  -2.4329  -2.4329  -2.3764  -2.3764  -2.3542
    -2.3542  -2.3542  -2.3542  -2.3077  -2.2793  -2.2792  -2.1066  -2.1066
    -2.0545  -2.0545  -2.0483  -2.0483  -1.8120  -1.8120  -1.8014  -1.3393
    -1.3393  -1.3393  -1.3393  -0.8249  -0.5100  -0.5100   1.0075   1.0076
     1.3226   1.3226   1.3226   1.3226   1.5170   1.5170   3.0280   3.2295
     3.2296   4.2434   4.2434   4.2434   4.2434   4.4367   4.7182

     occupation numbers 
     1.0000   1.0000   1.0000   1.0000   1.0000   1.0000   1.0000   1.0000
     1.0000   1.0000   1.0000   1.0000   1.0000   1.0000   1.0000   1.0000
     1.0000   1.0000   1.0000   1.0000   1.0000   1.0000   1.0000   1.0000
     1.0000   1.0000   1.0000   1.0000   1.0000   1.0000   1.0000   1.0000
     1.0000   1.0000   1.0000   1.0000   1.0000   1.0000   1.0000   1.0000
     1.0000   1.0000   1.0000   1.0000   1.0000   1.0000   1.0000   1.0000
     1.0000   1.0000   1.0000   1.0000   1.0000   1.0000   1.0000   1.0000
     1.0000   1.0000   1.0000   1.0000   1.0000   1.0000   1.0000   1.0000
     1.0000   1.0000   1.0000   1.0000   1.0000   1.0000   1.0000   1.0000
     1.0000   1.0000   1.0000   1.0000   1.0000   1.0000   1.0000   1.0000
     1.0000   1.0000   1.0000   1.0000   1.0000   1.0000   1.0000   1.0000
     1.0000   1.0000   1.0000   1.0000   1.0000   1.0000   1.0000   1.0000
     1.0000   1.0000   1.0000   1.0000   0.1102   0.1102   0.0000   0.0000
     0.0000   0.0000   0.0000   0.0000   0.0000   0.0000   0.0000   0.0000
     0.0000   0.0000   0.0000   0.0000   0.0000   0.0000   0.0000

          k = 0.0000 0.3536 0.0000 ( 25509 PWs)   bands (ev):

    -6.7159  -6.0699  -6.0699  -5.6252  -5.6252  -5.5979  -5.5848  -5.0915
    -5.0382  -5.0382  -5.0177  -4.9710  -4.9710  -4.9678  -4.9678  -4.9515
    -4.9359  -4.8347  -4.6379  -4.6379  -4.6119  -4.6119  -4.5775  -4.5775
    -4.5200  -4.4733  -4.4733  -4.4360  -4.4217  -4.3843  -4.3843  -4.3083
    -4.3083  -4.2161  -4.1280  -3.8716  -3.8716  -3.8442  -3.8442  -3.8392
    -3.6466  -3.6459  -3.6459  -3.6103  -3.6103  -3.5091  -3.5091  -3.5057
    -3.5056  -3.4573  -3.4117  -3.4117  -3.2523  -3.2522  -3.2364  -3.1595
    -3.1200  -3.1200  -3.0258  -3.0258  -2.9721  -2.9635  -2.9423  -2.8413
    -2.8413  -2.8158  -2.8158  -2.8002  -2.8002  -2.7678  -2.7458  -2.6917
    -2.6917  -2.6316  -2.4666  -2.4553  -2.4553  -2.4433  -2.4433  -2.2547
    -2.2546  -2.2223  -2.2018  -2.2005  -2.2005  -2.1973  -2.0939  -2.0347
    -2.0347  -1.9931  -1.9931  -1.9865  -1.9865  -1.9041  -1.7526  -1.7526
    -0.9222  -0.6245  -0.3614  -0.3614  -0.1800  -0.1800   0.5466   0.5466
     0.5849   1.3396   1.3396   2.4691   2.4691   2.7445   2.8047   3.1562
     3.1562   3.1730   3.4551   3.4551   3.7297   3.7297   4.2349

     occupation numbers 
     1.0000   1.0000   1.0000   1.0000   1.0000   1.0000   1.0000   1.0000
     1.0000   1.0000   1.0000   1.0000   1.0000   1.0000   1.0000   1.0000
     1.0000   1.0000   1.0000   1.0000   1.0000   1.0000   1.0000   1.0000
     1.0000   1.0000   1.0000   1.0000   1.0000   1.0000   1.0000   1.0000
     1.0000   1.0000   1.0000   1.0000   1.0000   1.0000   1.0000   1.0000
     1.0000   1.0000   1.0000   1.0000   1.0000   1.0000   1.0000   1.0000
     1.0000   1.0000   1.0000   1.0000   1.0000   1.0000   1.0000   1.0000
     1.0000   1.0000   1.0000   1.0000   1.0000   1.0000   1.0000   1.0000
     1.0000   1.0000   1.0000   1.0000   1.0000   1.0000   1.0000   1.0000
     1.0000   1.0000   1.0000   1.0000   1.0000   1.0000   1.0000   1.0000
     1.0000   1.0000   1.0000   1.0000   1.0000   1.0000   1.0000   1.0000
     1.0000   1.0000   1.0000   1.0000   1.0000   1.0000   1.0000   1.0000
     1.0000   0.9970   0.0000   0.0000   0.0000   0.0000   0.0000   0.0000
     0.0000   0.0000   0.0000   0.0000   0.0000   0.0000   0.0000   0.0000
     0.0000   0.0000   0.0000   0.0000   0.0000   0.0000   0.0000

          k = 0.0000-0.7071 0.0000 ( 25492 PWs)   bands (ev):

    -6.2219  -6.2218  -5.5591  -5.5591  -5.5590  -5.5590  -5.1716  -5.1715
    -5.1485  -5.1485  -5.1484  -5.1484  -5.0819  -5.0819  -5.0725  -5.0725
    -5.0725  -5.0725  -5.0125  -5.0125  -4.6600  -4.6600  -4.6599  -4.6599
    -4.3851  -4.3851  -4.3259  -4.3258  -4.2741  -4.2741  -4.2741  -4.2741
    -4.1586  -4.1586  -4.1585  -4.1585  -4.0450  -4.0449  -3.7447  -3.7447
    -3.7447  -3.7446  -3.6735  -3.6734  -3.6573  -3.6573  -3.6572  -3.6572
    -3.4722  -3.4722  -3.4721  -3.4721  -3.1690  -3.1689  -3.1638  -3.1638
    -3.1638  -3.1638  -2.9782  -2.9781  -2.9617  -2.9617  -2.9396  -2.9396
    -2.9396  -2.9396  -2.7868  -2.7868  -2.7868  -2.7868  -2.6273  -2.6273
    -2.6273  -2.6273  -2.5213  -2.5213  -2.3838  -2.3838  -2.2877  -2.2877
    -2.2877  -2.2877  -2.2067  -2.2067  -2.1439  -2.1439  -2.1102  -2.1101
    -1.9670  -1.9670  -1.9670  -1.9670  -1.9394  -1.9394  -1.9394  -1.9394
    -0.1220  -0.1219   0.0094   0.0094   0.0094   0.0094   0.8099   0.8099
     1.6108   1.6108   1.6108   1.6108   2.1358   2.1358   2.1359   2.1359
     3.5880   3.5881   4.0595   4.0596   4.0597   4.0600   4.1938

     occupation numbers 
     1.0000   1.0000   1.0000   1.0000   1.0000   1.0000   1.0000   1.0000
     1.0000   1.0000   1.0000   1.0000   1.0000   1.0000   1.0000   1.0000
     1.0000   1.0000   1.0000   1.0000   1.0000   1.0000   1.0000   1.0000
     1.0000   1.0000   1.0000   1.0000   1.0000   1.0000   1.0000   1.0000
     1.0000   1.0000   1.0000   1.0000   1.0000   1.0000   1.0000   1.0000
     1.0000   1.0000   1.0000   1.0000   1.0000   1.0000   1.0000   1.0000
     1.0000   1.0000   1.0000   1.0000   1.0000   1.0000   1.0000   1.0000
     1.0000   1.0000   1.0000   1.0000   1.0000   1.0000   1.0000   1.0000
     1.0000   1.0000   1.0000   1.0000   1.0000   1.0000   1.0000   1.0000
     1.0000   1.0000   1.0000   1.0000   1.0000   1.0000   1.0000   1.0000
     1.0000   1.0000   1.0000   1.0000   1.0000   1.0000   1.0000   1.0000
     1.0000   1.0000   1.0000   1.0000   1.0000   1.0000   1.0000   1.0000
     0.0000   0.0000   0.0000   0.0000   0.0000   0.0000   0.0000   0.0000
     0.0000   0.0000   0.0000   0.0000   0.0000   0.0000   0.0000   0.0000
     0.0000   0.0000   0.0000   0.0000   0.0000   0.0000   0.0000

          k = 0.2500 0.0000 0.0000 ( 25556 PWs)   bands (ev):

    -6.8423  -6.4849  -6.0621  -5.8478  -5.7712  -5.7586  -5.1414  -5.1414
    -4.9624  -4.9624  -4.8617  -4.8617  -4.8381  -4.8381  -4.7586  -4.7586
    -4.7532  -4.7532  -4.7520  -4.7520  -4.7414  -4.7414  -4.6871  -4.6871
    -4.5574  -4.5574  -4.4706  -4.4677  -4.4677  -4.4512  -4.3637  -4.3637
    -4.1719  -4.0976  -3.9033  -3.8780  -3.8456  -3.7391  -3.6647  -3.6647
    -3.6125  -3.6124  -3.5556  -3.5556  -3.4401  -3.4253  -3.4210  -3.3913
    -3.3735  -3.2931  -3.2931  -3.2442  -3.2004  -3.1417  -3.1417  -3.1241
    -3.1241  -3.1048  -3.1048  -3.0993  -3.0993  -3.0641  -3.0641  -3.0397
    -2.9021  -2.9021  -2.8884  -2.8817  -2.7231  -2.7231  -2.5940  -2.5940
    -2.5722  -2.4652  -2.4652  -2.4378  -2.4319  -2.4319  -2.3861  -2.3861
    -2.2955  -2.2955  -2.2860  -2.2572  -2.2572  -2.2243  -2.1446  -2.1274
    -2.1274  -2.0186  -2.0186  -1.9693  -1.8450  -1.7990  -1.7970  -1.7167
    -1.7167  -1.1878  -0.7923  -0.7923  -0.7622  -0.3771   0.6544   0.6544
     1.3296   1.5258   1.5604   1.5604   1.6498   1.6498   2.6810   3.0743
     3.3330   3.7725   4.3704   4.3704   4.6827   4.6828   4.7591

     occupation numbers 
     1.0000   1.0000   1.0000   1.0000   1.0000   1.0000   1.0000   1.0000
     1.0000   1.0000   1.0000   1.0000   1.0000   1.0000   1.0000   1.0000
     1.0000   1.0000   1.0000   1.0000   1.0000   1.0000   1.0000   1.0000
     1.0000   1.0000   1.0000   1.0000   1.0000   1.0000   1.0000   1.0000
     1.0000   1.0000   1.0000   1.0000   1.0000   1.0000   1.0000   1.0000
     1.0000   1.0000   1.0000   1.0000   1.0000   1.0000   1.0000   1.0000
     1.0000   1.0000   1.0000   1.0000   1.0000   1.0000   1.0000   1.0000
     1.0000   1.0000   1.0000   1.0000   1.0000   1.0000   1.0000   1.0000
     1.0000   1.0000   1.0000   1.0000   1.0000   1.0000   1.0000   1.0000
     1.0000   1.0000   1.0000   1.0000   1.0000   1.0000   1.0000   1.0000
     1.0000   1.0000   1.0000   1.0000   1.0000   1.0000   1.0000   1.0000
     1.0000   1.0000   1.0000   1.0000   1.0000   1.0000   1.0000   1.0000
     1.0000   1.0000   1.0000   1.0000   1.0000   0.0000   0.0000   0.0000
     0.0000   0.0000   0.0000   0.0000   0.0000   0.0000   0.0000   0.0000
     0.0000   0.0000   0.0000   0.0000   0.0000   0.0000   0.0000

          k = 0.2500 0.3536 0.0000 ( 25520 PWs)   bands (ev):

    -6.6635  -6.3012  -5.8763  -5.6702  -5.6001  -5.5949  -5.5349  -5.1906
    -5.0738  -5.0459  -5.0197  -4.9965  -4.9767  -4.9671  -4.9424  -4.9221
    -4.7961  -4.7907  -4.7701  -4.7141  -4.6353  -4.5982  -4.5319  -4.5307
    -4.5143  -4.4907  -4.4791  -4.4617  -4.4455  -4.4412  -4.4323  -4.3438
    -4.1369  -4.1274  -4.1059  -3.9658  -3.9041  -3.8566  -3.8419  -3.7757
    -3.6665  -3.6469  -3.6433  -3.6335  -3.5347  -3.5285  -3.5272  -3.4839
    -3.4560  -3.4307  -3.3794  -3.3551  -3.2920  -3.2634  -3.1869  -3.1852
    -3.1534  -3.1088  -3.0739  -3.0061  -2.9950  -2.9717  -2.9497  -2.9410
    -2.9366  -2.8732  -2.7918  -2.7883  -2.7521  -2.7425  -2.6923  -2.6446
    -2.6275  -2.5671  -2.5251  -2.5149  -2.4894  -2.3765  -2.3438  -2.2747
    -2.2722  -2.2478  -2.2344  -2.2338  -2.1536  -2.1261  -2.1234  -2.1009
    -2.0631  -2.0341  -1.9941  -1.9898  -1.9521  -1.9102  -1.8794  -1.3395
    -0.9801  -0.8798  -0.5620  -0.5356  -0.2117  -0.0717   0.3395   0.6361
     0.8104   1.6229   1.7673   1.8309   2.7951   2.8536   2.8716   2.9290
     3.2224   3.3328   3.3740   3.5167   3.5778   4.0413   4.1831

     occupation numbers 
     1.0000   1.0000   1.0000   1.0000   1.0000   1.0000   1.0000   1.0000
     1.0000   1.0000   1.0000   1.0000   1.0000   1.0000   1.0000   1.0000
     1.0000   1.0000   1.0000   1.0000   1.0000   1.0000   1.0000   1.0000
     1.0000   1.0000   1.0000   1.0000   1.0000   1.0000   1.0000   1.0000
     1.0000   1.0000   1.0000   1.0000   1.0000   1.0000   1.0000   1.0000
     1.0000   1.0000   1.0000   1.0000   1.0000   1.0000   1.0000   1.0000
     1.0000   1.0000   1.0000   1.0000   1.0000   1.0000   1.0000   1.0000
     1.0000   1.0000   1.0000   1.0000   1.0000   1.0000   1.0000   1.0000
     1.0000   1.0000   1.0000   1.0000   1.0000   1.0000   1.0000   1.0000
     1.0000   1.0000   1.0000   1.0000   1.0000   1.0000   1.0000   1.0000
     1.0000   1.0000   1.0000   1.0000   1.0000   1.0000   1.0000   1.0000
     1.0000   1.0000   1.0000   1.0000   1.0000   1.0000   1.0000   1.0000
     1.0000   1.0000   0.7174   0.3682   0.0000   0.0000   0.0000   0.0000
     0.0000   0.0000   0.0000   0.0000   0.0000   0.0000   0.0000   0.0000
     0.0000   0.0000   0.0000   0.0000   0.0000   0.0000   0.0000

          k = 0.2500-0.7071 0.0000 ( 25554 PWs)   bands (ev):

    -6.1684  -6.1683  -5.7963  -5.7961  -5.3670  -5.3669  -5.1849  -5.1848
    -5.1594  -5.1593  -5.1306  -5.1304  -5.0717  -5.0717  -5.0700  -5.0700
    -5.0698  -5.0698  -4.9954  -4.9954  -4.7917  -4.7917  -4.5637  -4.5637
    -4.4556  -4.4555  -4.4160  -4.4159  -4.2137  -4.2137  -4.1554  -4.1553
    -4.1146  -4.1145  -4.1089  -4.1088  -4.0662  -4.0661  -3.8872  -3.8872
    -3.7284  -3.7284  -3.6811  -3.6811  -3.6724  -3.6723  -3.6617  -3.6617
    -3.4340  -3.4339  -3.3745  -3.3745  -3.1946  -3.1946  -3.1560  -3.1560
    -3.1172  -3.1172  -3.1102  -3.1102  -2.9805  -2.9805  -2.9452  -2.9452
    -2.9284  -2.9284  -2.8117  -2.8117  -2.6646  -2.6645  -2.6595  -2.6595
    -2.5538  -2.5538  -2.5291  -2.5291  -2.4374  -2.4374  -2.3699  -2.3699
    -2.2208  -2.2208  -2.1839  -2.1839  -2.1470  -2.1470  -2.1258  -2.1258
    -2.0797  -2.0796  -2.0600  -2.0600  -1.8909  -1.8909  -1.6605  -1.6604
    -0.5820  -0.5820  -0.0633  -0.0633   0.2073   0.2073   0.8677   0.8677
     1.2838   1.2838   1.9790   1.9790   2.3592   2.3592   2.5858   2.5859
     3.5843   3.5844   3.6442   3.6442   3.7021   3.7021   4.0165

     occupation numbers 
     1.0000   1.0000   1.0000   1.0000   1.0000   1.0000   1.0000   1.0000
     1.0000   1.0000   1.0000   1.0000   1.0000   1.0000   1.0000   1.0000
     1.0000   1.0000   1.0000   1.0000   1.0000   1.0000   1.0000   1.0000
     1.0000   1.0000   1.0000   1.0000   1.0000   1.0000   1.0000   1.0000
     1.0000   1.0000   1.0000   1.0000   1.0000   1.0000   1.0000   1.0000
     1.0000   1.0000   1.0000   1.0000   1.0000   1.0000   1.0000   1.0000
     1.0000   1.0000   1.0000   1.0000   1.0000   1.0000   1.0000   1.0000
     1.0000   1.0000   1.0000   1.0000   1.0000   1.0000   1.0000   1.0000
     1.0000   1.0000   1.0000   1.0000   1.0000   1.0000   1.0000   1.0000
     1.0000   1.0000   1.0000   1.0000   1.0000   1.0000   1.0000   1.0000
     1.0000   1.0000   1.0000   1.0000   1.0000   1.0000   1.0000   1.0000
     1.0000   1.0000   1.0000   1.0000   1.0000   1.0000   1.0000   1.0000
     0.8981   0.8979   0.0000   0.0000   0.0000   0.0000   0.0000   0.0000
     0.0000   0.0000   0.0000   0.0000   0.0000   0.0000   0.0000   0.0000
     0.0000   0.0000   0.0000   0.0000   0.0000   0.0000   0.0000

          k =-0.5000 0.0000 0.0000 ( 25576 PWs)   bands (ev):

    -6.6963  -6.6963  -5.9289  -5.9289  -5.7595  -5.7594  -5.0560  -5.0559
    -5.0559  -5.0559  -4.7938  -4.7938  -4.7938  -4.7938  -4.7860  -4.7860
    -4.7859  -4.7859  -4.7430  -4.7430  -4.7430  -4.7430  -4.6902  -4.6902
    -4.6902  -4.6902  -4.4954  -4.4954  -4.3923  -4.3923  -4.3922  -4.3922
    -3.9903  -3.9903  -3.9275  -3.9275  -3.9030  -3.9030  -3.5988  -3.5987
    -3.5987  -3.5987  -3.4460  -3.4460  -3.4460  -3.4460  -3.4357  -3.4357
    -3.3556  -3.3556  -3.3292  -3.3292  -3.1201  -3.1200  -3.1200  -3.1200
    -3.0970  -3.0970  -3.0970  -3.0970  -3.0388  -3.0387  -3.0012  -3.0012
    -3.0012  -3.0011  -2.9469  -2.9468  -2.6594  -2.6594  -2.6594  -2.6594
    -2.4948  -2.4948  -2.4687  -2.4687  -2.4686  -2.4686  -2.3363  -2.3362
    -2.3362  -2.3362  -2.2270  -2.2269  -2.1766  -2.1766  -2.1766  -2.1765
    -1.9265  -1.9265  -1.9265  -1.9265  -1.8979  -1.8979  -1.8376  -1.8376
    -1.7951  -1.7951  -0.5870  -0.5870  -0.1051  -0.1051  -0.1050  -0.1050
     1.6509   1.6510   1.6510   1.6510   1.9675   1.9675   2.6189   2.6190
     3.1995   3.1995   4.8310   4.8311   4.8311   4.8311   4.8572

     occupation numbers 
     1.0000   1.0000   1.0000   1.0000   1.0000   1.0000   1.0000   1.0000
     1.0000   1.0000   1.0000   1.0000   1.0000   1.0000   1.0000   1.0000
     1.0000   1.0000   1.0000   1.0000   1.0000   1.0000   1.0000   1.0000
     1.0000   1.0000   1.0000   1.0000   1.0000   1.0000   1.0000   1.0000
     1.0000   1.0000   1.0000   1.0000   1.0000   1.0000   1.0000   1.0000
     1.0000   1.0000   1.0000   1.0000   1.0000   1.0000   1.0000   1.0000
     1.0000   1.0000   1.0000   1.0000   1.0000   1.0000   1.0000   1.0000
     1.0000   1.0000   1.0000   1.0000   1.0000   1.0000   1.0000   1.0000
     1.0000   1.0000   1.0000   1.0000   1.0000   1.0000   1.0000   1.0000
     1.0000   1.0000   1.0000   1.0000   1.0000   1.0000   1.0000   1.0000
     1.0000   1.0000   1.0000   1.0000   1.0000   1.0000   1.0000   1.0000
     1.0000   1.0000   1.0000   1.0000   1.0000   1.0000   1.0000   1.0000
     1.0000   1.0000   0.9257   0.9255   0.0000   0.0000   0.0000   0.0000
     0.0000   0.0000   0.0000   0.0000   0.0000   0.0000   0.0000   0.0000
     0.0000   0.0000   0.0000   0.0000   0.0000   0.0000   0.0000

          k =-0.5000 0.3536 0.0000 ( 25526 PWs)   bands (ev):

    -6.5156  -6.5156  -5.7468  -5.7468  -5.5919  -5.5919  -5.3943  -5.3943
    -5.0509  -5.0509  -4.9957  -4.9957  -4.9731  -4.9731  -4.8863  -4.8863
    -4.8472  -4.8472  -4.6892  -4.6892  -4.6834  -4.6834  -4.5526  -4.5526
    -4.4839  -4.4839  -4.4782  -4.4782  -4.4654  -4.4654  -4.3858  -4.3858
    -4.0481  -4.0481  -3.9593  -3.9593  -3.9571  -3.9571  -3.8904  -3.8904
    -3.6371  -3.6371  -3.5972  -3.5972  -3.5429  -3.5429  -3.4624  -3.4624
    -3.3577  -3.3577  -3.3366  -3.3365  -3.2621  -3.2621  -3.2567  -3.2567
    -3.2361  -3.2361  -3.0596  -3.0596  -2.9399  -2.9399  -2.9383  -2.9383
    -2.8807  -2.8807  -2.8746  -2.8746  -2.7383  -2.7383  -2.5874  -2.5874
    -2.5850  -2.5850  -2.5661  -2.5660  -2.3957  -2.3957  -2.3172  -2.3172
    -2.2530  -2.2530  -2.1882  -2.1882  -2.1839  -2.1839  -2.1041  -2.1041
    -2.0882  -2.0882  -2.0436  -2.0436  -1.9265  -1.9265  -1.5574  -1.5574
    -0.7594  -0.7594  -0.7555  -0.7555  -0.3935  -0.3934   0.7548   0.7549
     1.0089   1.0089   2.2326   2.2326   2.8769   2.8769   2.8899   2.8899
     3.0835   3.0835   3.3583   3.3583   3.8448   3.8448   4.5117

     occupation numbers 
     1.0000   1.0000   1.0000   1.0000   1.0000   1.0000   1.0000   1.0000
     1.0000   1.0000   1.0000   1.0000   1.0000   1.0000   1.0000   1.0000
     1.0000   1.0000   1.0000   1.0000   1.0000   1.0000   1.0000   1.0000
     1.0000   1.0000   1.0000   1.0000   1.0000   1.0000   1.0000   1.0000
     1.0000   1.0000   1.0000   1.0000   1.0000   1.0000   1.0000   1.0000
     1.0000   1.0000   1.0000   1.0000   1.0000   1.0000   1.0000   1.0000
     1.0000   1.0000   1.0000   1.0000   1.0000   1.0000   1.0000   1.0000
     1.0000   1.0000   1.0000   1.0000   1.0000   1.0000   1.0000   1.0000
     1.0000   1.0000   1.0000   1.0000   1.0000   1.0000   1.0000   1.0000
     1.0000   1.0000   1.0000   1.0000   1.0000   1.0000   1.0000   1.0000
     1.0000   1.0000   1.0000   1.0000   1.0000   1.0000   1.0000   1.0000
     1.0000   1.0000   1.0000   1.0000   1.0000   1.0000   1.0000   1.0000
     1.0000   1.0000   1.0000   1.0000   0.0000   0.0000   0.0000   0.0000
     0.0000   0.0000   0.0000   0.0000   0.0000   0.0000   0.0000   0.0000
     0.0000   0.0000   0.0000   0.0000   0.0000   0.0000   0.0000

          k =-0.5000-0.7071 0.0000 ( 25560 PWs)   bands (ev):

    -6.0168  -6.0168  -6.0167  -6.0167  -5.2486  -5.2486  -5.2485  -5.2485
    -5.1368  -5.1367  -5.1366  -5.1366  -5.0707  -5.0707  -5.0650  -5.0650
    -5.0650  -5.0650  -4.9176  -4.9176  -4.9176  -4.9176  -4.5295  -4.5294
    -4.4812  -4.4812  -4.4811  -4.4811  -4.1139  -4.1139  -4.1138  -4.1138
    -4.0545  -4.0545  -4.0545  -4.0545  -4.0510  -4.0510  -4.0509  -4.0509
    -3.7372  -3.7372  -3.7372  -3.7372  -3.6689  -3.6689  -3.6688  -3.6688
    -3.2870  -3.2870  -3.2869  -3.2869  -3.2680  -3.2679  -3.2679  -3.2679
    -3.1011  -3.1011  -3.0357  -3.0357  -3.0357  -3.0357  -3.0314  -3.0314
    -2.8646  -2.8646  -2.8645  -2.8645  -2.5693  -2.5693  -2.5693  -2.5693
    -2.5553  -2.5553  -2.5553  -2.5553  -2.4642  -2.4642  -2.4642  -2.4642
    -2.1661  -2.1661  -2.1661  -2.1661  -2.1435  -2.1435  -2.1435  -2.1435
    -2.1283  -2.1283  -2.1282  -2.1282  -1.8619  -1.8619  -1.2010  -1.2010
    -1.2010  -1.2010   0.0848   0.0848   0.0848   0.0848   1.0316   1.0316
     1.0316   1.0316   2.1978   2.1978   2.9181   2.9181   2.9181   2.9181
     3.4117   3.4117   3.5839   3.5839   3.5839   3.5840   3.8032

     occupation numbers 
     1.0000   1.0000   1.0000   1.0000   1.0000   1.0000   1.0000   1.0000
     1.0000   1.0000   1.0000   1.0000   1.0000   1.0000   1.0000   1.0000
     1.0000   1.0000   1.0000   1.0000   1.0000   1.0000   1.0000   1.0000
     1.0000   1.0000   1.0000   1.0000   1.0000   1.0000   1.0000   1.0000
     1.0000   1.0000   1.0000   1.0000   1.0000   1.0000   1.0000   1.0000
     1.0000   1.0000   1.0000   1.0000   1.0000   1.0000   1.0000   1.0000
     1.0000   1.0000   1.0000   1.0000   1.0000   1.0000   1.0000   1.0000
     1.0000   1.0000   1.0000   1.0000   1.0000   1.0000   1.0000   1.0000
     1.0000   1.0000   1.0000   1.0000   1.0000   1.0000   1.0000   1.0000
     1.0000   1.0000   1.0000   1.0000   1.0000   1.0000   1.0000   1.0000
     1.0000   1.0000   1.0000   1.0000   1.0000   1.0000   1.0000   1.0000
     1.0000   1.0000   1.0000   1.0000   1.0000   1.0000   1.0000   1.0000
     1.0000   1.0000   0.0000   0.0000   0.0000   0.0000   0.0000   0.0000
     0.0000   0.0000   0.0000   0.0000   0.0000   0.0000   0.0000   0.0000
     0.0000   0.0000   0.0000   0.0000   0.0000   0.0000   0.0000

     the Fermi energy is    -0.5454 ev

!    total energy              =   -2068.89667718 Ry
     estimated scf accuracy    <       0.00000016 Ry
     smearing contrib. (-TS)   =      -0.00112672 Ry
     internal energy E=F+TS    =   -2068.89555046 Ry

     The total energy is F=E-TS. E is the sum of the following terms:
     one-electron contribution =   -3164.53814734 Ry
     hartree contribution      =    1720.68464377 Ry
     xc contribution           =   -1118.63316126 Ry
     ewald contribution        =     493.59111438 Ry

     convergence has been achieved in   7 iterations

     negative rho (up, down):  7.105E-05 0.000E+00

     Forces acting on atoms (cartesian axes, Ry/au):

     atom    1 type  1   force =    -0.00000375    0.00000000    0.03040782
     atom    2 type  1   force =     0.00000000    0.00000819   -0.03041588
     atom    3 type  1   force =     0.00000618    0.00000876    0.03039647
     atom    4 type  1   force =     0.00000000    0.00000000   -0.03040880
     atom    5 type  1   force =     0.00000618   -0.00000876    0.03039647
     atom    6 type  1   force =     0.00000000   -0.00000819   -0.03041588
     atom    7 type  1   force =     0.00000000    0.00000000    0.03041012
     atom    8 type  1   force =     0.00000205    0.00001048   -0.03039783
     atom    9 type  1   force =     0.00000000    0.00001502    0.03040223
     atom   10 type  1   force =     0.00000915    0.00000000   -0.03039211
     atom   11 type  1   force =     0.00000000   -0.00001502    0.03040223
     atom   12 type  1   force =     0.00000205   -0.00001048   -0.03039783
     atom   13 type  1   force =     0.00000375    0.00000000    0.03040782
     atom   14 type  1   force =    -0.00000205    0.00001048   -0.03039783
     atom   15 type  1   force =    -0.00000618    0.00000876    0.03039647
     atom   16 type  1   force =    -0.00000915    0.00000000   -0.03039211
     atom   17 type  1   force =    -0.00000618   -0.00000876    0.03039647
     atom   18 type  1   force =    -0.00000205   -0.00001048   -0.03039783
     The non-local contrib.  to forces
     atom    1 type  1   force =     0.00000062    0.00000000   -0.03979540
     atom    2 type  1   force =     0.00000000    0.00000663    0.03978485
     atom    3 type  1   force =     0.00000726    0.00000399   -0.03979167
     atom    4 type  1   force =     0.00000000    0.00000000    0.03976861
     atom    5 type  1   force =     0.00000726   -0.00000399   -0.03979167
     atom    6 type  1   force =     0.00000000   -0.00000663    0.03978485
     atom    7 type  1   force =     0.00000000    0.00000000   -0.03979619
     atom    8 type  1   force =     0.00000201    0.00000879    0.03980118
     atom    9 type  1   force =     0.00000000    0.00000843   -0.03980134
     atom   10 type  1   force =     0.00000760    0.00000000    0.03979938
     atom   11 type  1   force =     0.00000000   -0.00000843   -0.03980134
     atom   12 type  1   force =     0.00000201   -0.00000879    0.03980118
     atom   13 type  1   force =    -0.00000062    0.00000000   -0.03979540
     atom   14 type  1   force =    -0.00000201    0.00000879    0.03980118
     atom   15 type  1   force =    -0.00000726    0.00000399   -0.03979167
     atom   16 type  1   force =    -0.00000760    0.00000000    0.03979938
     atom   17 type  1   force =    -0.00000726   -0.00000399   -0.03979167
     atom   18 type  1   force =    -0.00000201   -0.00000879    0.03980118
     The ionic contribution  to forces
     atom    1 type  1   force =     0.00005363    0.00003317  -20.26422006
     atom    2 type  1   force =    -0.00000000   -0.00074719   20.26422212
     atom    3 type  1   force =     0.00012757   -0.00071247  -20.26435060
     atom    4 type  1   force =     0.00000000   -0.00000656   20.26442474
     atom    5 type  1   force =     0.00012757    0.00068351  -20.26435060
     atom    6 type  1   force =    -0.00000000    0.00074954   20.26423886
     atom    7 type  1   force =     0.00000000    0.00003317  -20.26366833
     atom    8 type  1   force =     0.00017509   -0.00058963   20.26399502
     atom    9 type  1   force =     0.00000000   -0.00061557  -20.26381578
     atom   10 type  1   force =     0.00023486   -0.00000656   20.26412157
     atom   11 type  1   force =     0.00000000    0.00058661  -20.26381578
     atom   12 type  1   force =     0.00017509    0.00059198   20.26401177
     atom   13 type  1   force =    -0.00005363    0.00003317  -20.26422006
     atom   14 type  1   force =    -0.00017509   -0.00058963   20.26399502
     atom   15 type  1   force =    -0.00012757   -0.00071247  -20.26435060
[...]
     0.8822   0.8822   1.8572   1.8572   3.4714   3.4714   3.4715   3.4716
     3.5680   3.5681   3.5682   3.5683   3.9327   3.9327   4.2280

     occupation numbers 
     1.0000   1.0000   1.0000   1.0000   1.0000   1.0000   1.0000   1.0000
     1.0000   1.0000   1.0000   1.0000   1.0000   1.0000   1.0000   1.0000
     1.0000   1.0000   1.0000   1.0000   1.0000   1.0000   1.0000   1.0000
     1.0000   1.0000   1.0000   1.0000   1.0000   1.0000   1.0000   1.0000
     1.0000   1.0000   1.0000   1.0000   1.0000   1.0000   1.0000   1.0000
     1.0000   1.0000   1.0000   1.0000   1.0000   1.0000   1.0000   1.0000
     1.0000   1.0000   1.0000   1.0000   1.0000   1.0000   1.0000   1.0000
     1.0000   1.0000   1.0000   1.0000   1.0000   1.0000   1.0000   1.0000
     1.0000   1.0000   1.0000   1.0000   1.0000   1.0000   1.0000   1.0000
     1.0000   1.0000   1.0000   1.0000   1.0000   1.0000   1.0000   1.0000
     1.0000   1.0000   1.0000   1.0000   1.0000   1.0000   1.0000   1.0000
     1.0000   1.0000   1.0000   1.0000   1.0000   1.0000   1.0000   1.0000
     1.0000   1.0000   0.0000   0.0000   0.0000   0.0000   0.0000   0.0000
     0.0000   0.0000   0.0000   0.0000   0.0000   0.0000   0.0000   0.0000
     0.0000   0.0000   0.0000   0.0000   0.0000   0.0000   0.0000

     the Fermi energy is    -0.2254 ev

!    total energy              =   -2069.02479029 Ry
     estimated scf accuracy    <          5.8E-10 Ry
     smearing contrib. (-TS)   =      -0.00011132 Ry
     internal energy E=F+TS    =   -2069.02467897 Ry

     The total energy is F=E-TS. E is the sum of the following terms:
     one-electron contribution =   -3468.83665004 Ry
     hartree contribution      =    1871.95087996 Ry
     xc contribution           =   -1119.90230697 Ry
     ewald contribution        =     647.76339807 Ry

     convergence has been achieved in   6 iterations

     negative rho (up, down):  1.281E-04 0.000E+00

     Forces acting on atoms (cartesian axes, Ry/au):

     atom    1 type  1   force =    -0.00002466    0.00000000    0.00005570
     atom    2 type  1   force =     0.00000000   -0.00000176   -0.00005733
     atom    3 type  1   force =    -0.00004268   -0.00000830    0.00004519
     atom    4 type  1   force =     0.00000000    0.00000000   -0.00004993
     atom    5 type  1   force =    -0.00004268    0.00000830    0.00004519
     atom    6 type  1   force =     0.00000000    0.00000176   -0.00005733
     atom    7 type  1   force =     0.00000000    0.00000000    0.00003232
     atom    8 type  1   force =    -0.00002061   -0.00002460   -0.00003665
     atom    9 type  1   force =     0.00000000   -0.00003296    0.00001538
     atom   10 type  1   force =    -0.00003883    0.00000000   -0.00002203
     atom   11 type  1   force =     0.00000000    0.00003296    0.00001538
     atom   12 type  1   force =    -0.00002061    0.00002460   -0.00003665
     atom   13 type  1   force =     0.00002466    0.00000000    0.00005570
     atom   14 type  1   force =     0.00002061   -0.00002460   -0.00003665
     atom   15 type  1   force =     0.00004268   -0.00000830    0.00004519
     atom   16 type  1   force =     0.00003883    0.00000000   -0.00002203
     atom   17 type  1   force =     0.00004268    0.00000830    0.00004519
     atom   18 type  1   force =     0.00002061    0.00002460   -0.00003665
     The non-local contrib.  to forces
     atom    1 type  1   force =    -0.00000526    0.00000000   -0.03942566
     atom    2 type  1   force =     0.00000000    0.00000248    0.03942438
     atom    3 type  1   force =    -0.00000456    0.00000190   -0.03942513
     atom    4 type  1   force =     0.00000000    0.00000000    0.03942689
     atom    5 type  1   force =    -0.00000456   -0.00000190   -0.03942513
     atom    6 type  1   force =     0.00000000   -0.00000248    0.03942438
     atom    7 type  1   force =     0.00000000    0.00000000   -0.03942122
     atom    8 type  1   force =    -0.00000875   -0.00000197    0.03941928
     atom    9 type  1   force =    -0.00000000   -0.00000440   -0.03941362
     atom   10 type  1   force =    -0.00000602    0.00000000    0.03941358
     atom   11 type  1   force =     0.00000000    0.00000440   -0.03941362
     atom   12 type  1   force =    -0.00000875    0.00000197    0.03941928
     atom   13 type  1   force =     0.00000526    0.00000000   -0.03942566
     atom   14 type  1   force =     0.00000875   -0.00000197    0.03941928
     atom   15 type  1   force =     0.00000456    0.00000190   -0.03942513
     atom   16 type  1   force =     0.00000602    0.00000000    0.03941358
     atom   17 type  1   force =     0.00000456   -0.00000190   -0.03942513
     atom   18 type  1   force =     0.00000875    0.00000197    0.03941928
     The ionic contribution  to forces
     atom    1 type  1   force =    -0.00108462    0.00003638  -16.09599312
     atom    2 type  1   force =    -0.00000000   -0.00030004   16.09597695
     atom    3 type  1   force =    -0.00197505   -0.00076975  -16.09646804
     atom    4 type  1   force =    -0.00000000   -0.00000751   16.09653678
     atom    5 type  1   force =    -0.00197505    0.00074079  -16.09646804
     atom    6 type  1   force =    -0.00000000    0.00030012   16.09599288
     atom    7 type  1   force =     0.00000000    0.00003639  -16.09135591
     atom    8 type  1   force =    -0.00148430   -0.00184533   16.09427463
     atom    9 type  1   force =     0.00000000   -0.00241966  -16.09452436
     atom   10 type  1   force =    -0.00232024   -0.00000751   16.09631303
     atom   11 type  1   force =     0.00000000    0.00239070  -16.09452437
     atom   12 type  1   force =    -0.00148430    0.00184541   16.09429056
     atom   13 type  1   force =     0.00108462    0.00003638  -16.09599312
     atom   14 type  1   force =     0.00148430   -0.00184533   16.09427463
     atom   15 type  1   force =     0.00197505   -0.00076975  -16.09646804
     atom   16 type  1   force =     0.00232024   -0.00000751   16.09631303
     atom   17 type  1   force =     0.00197505    0.00074079  -16.09646804
     atom   18 type  1   force =     0.00148430    0.00184541   16.09429056
     The local contribution  to forces
     atom    1 type  1   force =     0.00107800   -0.00000000   16.11117517
     atom    2 type  1   force =    -0.00000000    0.00025971  -16.11116252
     atom    3 type  1   force =     0.00194629    0.00070775   16.11163886
     atom    4 type  1   force =    -0.00000000   -0.00004369  -16.11171069
     atom    5 type  1   force =     0.00194629   -0.00079513   16.11163886
     atom    6 type  1   force =    -0.00000000   -0.00034709  -16.11116252
     atom    7 type  1   force =     0.00000000   -0.00000000   16.10651798
     atom    8 type  1   force =     0.00147483    0.00178303  -16.10943162
     atom    9 type  1   force =     0.00000000    0.00233566   16.10965688
     atom   10 type  1   force =     0.00228679   -0.00004369  -16.11143854
     atom   11 type  1   force =     0.00000000   -0.00242304   16.10965688
     atom   12 type  1   force =     0.00147483   -0.00187041  -16.10943162
     atom   13 type  1   force =    -0.00107800   -0.00000000   16.11117517
     atom   14 type  1   force =    -0.00147483    0.00178303  -16.10943162
     atom   15 type  1   force =    -0.00194629    0.00070775   16.11163886
     atom   16 type  1   force =    -0.00228679   -0.00004369  -16.11143854
     atom   17 type  1   force =    -0.00194629   -0.00079513   16.11163886
     atom   18 type  1   force =    -0.00147483   -0.00187041  -16.10943162
     The core correction contribution to forces
     atom    1 type  1   force =    -0.00000403    0.00000000    0.02428271
     atom    2 type  1   force =     0.00000000   -0.00001526   -0.02427734
     atom    3 type  1   force =     0.00000034   -0.00001381    0.02428610
     atom    4 type  1   force =     0.00000000   -0.00001512   -0.02427915
     atom    5 type  1   force =     0.00000034   -0.00001643    0.02428610
     atom    6 type  1   force =     0.00000000   -0.00001497   -0.02427734
     atom    7 type  1   force =    -0.00000000   -0.00000000    0.02428090
     atom    8 type  1   force =     0.00000273   -0.00001016   -0.02428828
     atom    9 type  1   force =    -0.00000000   -0.00000836    0.02429005
     atom   10 type  1   force =     0.00000734   -0.00001512   -0.02429530
     atom   11 type  1   force =    -0.00000000   -0.00002187    0.02429005
     atom   12 type  1   force =     0.00000272   -0.00002007   -0.02428828
     atom   13 type  1   force =     0.00000403    0.00000000    0.02428271
     atom   14 type  1   force =    -0.00000273   -0.00001016   -0.02428828
     atom   15 type  1   force =    -0.00000034   -0.00001381    0.02428610
     atom   16 type  1   force =    -0.00000734   -0.00001512   -0.02429530
     atom   17 type  1   force =    -0.00000034   -0.00001643    0.02428610
     atom   18 type  1   force =    -0.00000272   -0.00002007   -0.02428828
     The Hubbard contrib.    to forces
     atom    1 type  1   force =     0.00000000    0.00000000    0.00000000
     atom    2 type  1   force =     0.00000000    0.00000000    0.00000000
     atom    3 type  1   force =     0.00000000    0.00000000    0.00000000
     atom    4 type  1   force =     0.00000000    0.00000000    0.00000000
     atom    5 type  1   force =     0.00000000    0.00000000    0.00000000
     atom    6 type  1   force =     0.00000000    0.00000000    0.00000000
     atom    7 type  1   force =     0.00000000    0.00000000    0.00000000
     atom    8 type  1   force =     0.00000000    0.00000000    0.00000000
     atom    9 type  1   force =     0.00000000    0.00000000    0.00000000
     atom   10 type  1   force =     0.00000000    0.00000000    0.00000000
     atom   11 type  1   force =     0.00000000    0.00000000    0.00000000
     atom   12 type  1   force =     0.00000000    0.00000000    0.00000000
     atom   13 type  1   force =     0.00000000    0.00000000    0.00000000
     atom   14 type  1   force =     0.00000000    0.00000000    0.00000000
     atom   15 type  1   force =     0.00000000    0.00000000    0.00000000
     atom   16 type  1   force =     0.00000000    0.00000000    0.00000000
     atom   17 type  1   force =     0.00000000    0.00000000    0.00000000
     atom   18 type  1   force =     0.00000000    0.00000000    0.00000000
     The SCF correction term to forces
     atom    1 type  1   force =    -0.00000875    0.00000000    0.00001648
     atom    2 type  1   force =     0.00000000   -0.00000742   -0.00002688
     atom    3 type  1   force =    -0.00000970   -0.00000768    0.00001329
     atom    4 type  1   force =     0.00000000    0.00000000   -0.00002387
     atom    5 type  1   force =    -0.00000970    0.00000768    0.00001329
     atom    6 type  1   force =    -0.00000000    0.00000742   -0.00002688
     atom    7 type  1   force =     0.00000000    0.00000000    0.00001045
     atom    8 type  1   force =    -0.00000512   -0.00000894   -0.00001875
     atom    9 type  1   force =     0.00000000   -0.00000948    0.00000633
     atom   10 type  1   force =    -0.00000671    0.00000000   -0.00001492
     atom   11 type  1   force =     0.00000000    0.00000948    0.00000633
     atom   12 type  1   force =    -0.00000512    0.00000894   -0.00001875
     atom   13 type  1   force =     0.00000875    0.00000000    0.00001648
     atom   14 type  1   force =     0.00000512   -0.00000894   -0.00001875
     atom   15 type  1   force =     0.00000970   -0.00000768    0.00001329
     atom   16 type  1   force =     0.00000671    0.00000000   -0.00001492
     atom   17 type  1   force =     0.00000970    0.00000768    0.00001329
     atom   18 type  1   force =     0.00000512    0.00000894   -0.00001875

     Total force =     0.000222     Total SCF correction =     0.000083
     SCF correction compared to forces is large: reduce conv_thr to get better values


     Computing stress (Cartesian axis) and pressure


     negative rho (up, down):  1.281E-04 0.000E+00
          total   stress  (Ry/bohr**3)                   (kbar)     P=       18.96
   0.00030406   0.00000000   0.00000000           44.73        0.00        0.00
   0.00000000   0.00008447   0.00000000            0.00       12.43        0.00
   0.00000000   0.00000000  -0.00000177            0.00        0.00       -0.26

     kinetic stress (kbar)   4809.97      0.00      0.00
                                0.00   4789.86      0.00
                                0.00      0.00   4916.29

     local   stress (kbar) -51447.10      0.00     -0.00
                                0.00 -52380.92      0.00
                               -0.00      0.00  64027.51

     nonloc. stress (kbar)  -3050.33      0.00      0.00
                                0.00  -3043.13      0.00
                                0.00      0.00  -3058.67

     hartree stress (kbar)  27937.88     -0.00     -0.00
                               -0.00  28310.44     -0.00
                               -0.00     -0.00 -26325.13

     exc-cor stress (kbar)  12480.61      0.00     -0.00
                                0.00  12481.49     -0.00
                               -0.00     -0.00  12469.24

     corecor stress (kbar) -14402.74      0.00     -0.00
                                0.00 -14400.30     -0.00
                               -0.00     -0.00 -14412.59

     ewald   stress (kbar)  23716.45      0.00      0.00
                                0.00  24254.98     -0.00
                                0.00     -0.00 -37616.92

     hubbard stress (kbar)      0.00      0.00      0.00
                                0.00      0.00      0.00
                                0.00      0.00      0.00

     DFT-D   stress (kbar)      0.00      0.00      0.00
                                0.00      0.00      0.00
                                0.00      0.00      0.00

     XDM     stress (kbar)      0.00      0.00      0.00
                                0.00      0.00      0.00
                                0.00      0.00      0.00

     dft-nl  stress (kbar)      0.00      0.00      0.00
                                0.00      0.00      0.00
                                0.00      0.00      0.00

     TS-vdW  stress (kbar)      0.00      0.00      0.00
                                0.00      0.00      0.00
                                0.00      0.00      0.00


     Energy error            =      3.1E-06
     Gradient error          =      5.7E-05

     bfgs converged in   9 scf cycles and   8 bfgs steps
     (criteria: energy <  1.0E-04 Ry, force <  1.0E-03 Ry/Bohr)

     End of BFGS Geometry Optimization

     Final energy   =   -2069.0247902930 Ry

     File ./surface.bfgs deleted, as requested
Begin final coordinates

ATOMIC_POSITIONS (angstrom)
Au            2.0391860223        0.0000000000        0.2624738081
Au            0.0000000000        1.4418746791        1.1793949084
Au            2.0391697453        2.8837815031        0.2624751554
Au            0.0000000000        4.3256370000        1.1794036209
Au            2.0391697453        5.7674924969        0.2624751554
Au            0.0000000000        7.2093993209        1.1793949084
Au            6.1173750000        0.0000000000        0.2626976216
Au            4.0782876347        1.4419570694        1.1793084707
Au            6.1173750000        2.8838614444        0.2626123378
Au            4.0782768012        4.3256370000        1.1793565724
Au            6.1173750000        5.7674125556        0.2626123378
Au            4.0782876347        7.2093169306        1.1793084707
Au           10.1955639777        0.0000000000        0.2624738081
Au            8.1564623653        1.4419570694        1.1793084707
Au           10.1955802547        2.8837815031        0.2624751554
Au            8.1564731988        4.3256370000        1.1793565724
Au           10.1955802547        5.7674924969        0.2624751554
Au            8.1564623653        7.2093169306        1.1793084707
End final coordinates



     Writing output data file ./surface.save/

     init_run     :      2.43s CPU      2.58s WALL (       1 calls)
     electrons    :    409.90s CPU    424.48s WALL (       9 calls)
     update_pot   :      3.77s CPU      3.80s WALL (       8 calls)
     forces       :     15.83s CPU     16.45s WALL (       9 calls)
     stress       :    108.91s CPU    110.30s WALL (       9 calls)

     Called by init_run:
     wfcinit      :      1.45s CPU      1.47s WALL (       1 calls)
     wfcinit:atom :      0.01s CPU      0.01s WALL (       9 calls)
     wfcinit:wfcr :      1.34s CPU      1.36s WALL (       9 calls)
     potinit      :      0.20s CPU      0.20s WALL (       1 calls)
     hinit0       :      0.30s CPU      0.31s WALL (       1 calls)

     Called by electrons:
     c_bands      :    332.60s CPU    335.90s WALL (      71 calls)
     sum_band     :     54.66s CPU     61.17s WALL (      71 calls)
     v_of_rho     :      4.23s CPU      4.35s WALL (      78 calls)
     v_h          :      0.32s CPU      0.32s WALL (      78 calls)
     v_xc         :      4.84s CPU      4.96s WALL (      96 calls)
     newd         :     20.03s CPU     24.52s WALL (      78 calls)
     mix_rho      :      0.41s CPU      0.41s WALL (      71 calls)

     Called by c_bands:
     init_us_2    :      4.14s CPU      4.17s WALL (    1449 calls)
     cegterg      :    320.57s CPU    323.68s WALL (     639 calls)

     Called by sum_band:
     sum_band:wei :      0.03s CPU      0.03s WALL (      71 calls)
     sum_band:loo :     30.58s CPU     30.94s WALL (      71 calls)
     sum_band:buf :      0.52s CPU      0.53s WALL (     639 calls)
     sum_band:ini :      1.95s CPU      1.96s WALL (     639 calls)
     sum_band:cal :     10.77s CPU     10.84s WALL (     639 calls)
     sum_band:bec :      0.30s CPU      0.30s WALL (     639 calls)
     addusdens    :     17.58s CPU     23.69s WALL (      71 calls)
     addusd:skk   :      0.26s CPU      0.26s WALL (      71 calls)
     addusd:dgemm :      7.19s CPU     13.15s WALL (      71 calls)
     addusd:qvan2 :      8.53s CPU      8.58s WALL (      71 calls)

     Called by *egterg:
     cdiaghg      :     34.44s CPU     34.71s WALL (    3161 calls)
     cegterg:over :     31.53s CPU     31.75s WALL (    2612 calls)
     cegterg:upda :     16.87s CPU     16.98s WALL (    2612 calls)
     cegterg:last :     40.10s CPU     40.35s WALL (    1959 calls)
     cdiaghg:chol :      1.49s CPU      1.52s WALL (    3161 calls)
     cdiaghg:inve :      1.47s CPU      1.49s WALL (    3161 calls)
     cdiaghg:para :      3.50s CPU      3.53s WALL (    6322 calls)
     h_psi        :    166.55s CPU    168.62s WALL (    3260 calls)
     s_psi        :     23.30s CPU     23.45s WALL (    3260 calls)
     g_psi        :      0.40s CPU      0.41s WALL (    2612 calls)

     Called by h_psi:
     h_psi:calbec :     40.20s CPU     40.45s WALL (    3260 calls)
     vloc_psi     :    102.75s CPU    104.41s WALL (    3260 calls)
     add_vuspsi   :     22.90s CPU     23.05s WALL (    3260 calls)

     General routines
     calbec       :    100.50s CPU    101.04s WALL (    4304 calls)
     fft          :      3.92s CPU      3.97s WALL (    1231 calls)
     ffts         :      0.10s CPU      0.11s WALL (     149 calls)
     fftw         :    111.29s CPU    113.07s WALL (  585497 calls)
     interpolate  :      0.28s CPU      0.28s WALL (      78 calls)

     Parallel routines
     fft_scatt_xy :      8.72s CPU      8.85s WALL (  586877 calls)
     fft_scatt_yz :     48.38s CPU     49.19s WALL (  586877 calls)

     PWSCF        :   9m 3.62s CPU   9m23.05s WALL


   This run was terminated on:  17:59:49   9Dec2021            

=------------------------------------------------------------------------------=
   JOB DONE.
=------------------------------------------------------------------------------=
