
     Program PWSCF v.6.7MaX starts on 24Nov2021 at 21: 8:26 

     This program is part of the open-source Quantum ESPRESSO suite
     for quantum simulation of materials; please cite
         "P. Giannozzi et al., J. Phys.:Condens. Matter 21 395502 (2009);
         "P. Giannozzi et al., J. Phys.:Condens. Matter 29 465901 (2017);
          URL http://www.quantum-espresso.org", 
     in publications or presentations arising from this work. More details at
     http://www.quantum-espresso.org/quote

     Parallel version (MPI), running on    16 processors

     MPI processes distributed on     1 nodes
     R & G space division:  proc/nbgrp/npool/nimage =      16
     Reading input from au_bulk.qe.7_7_7.in

     Current dimensions of program PWSCF are:
     Max number of different atomic species (ntypx) = 10
     Max number of k-points (npk) =  40000
     Max angular momentum in pseudopotentials (lmaxx) =  3

     Subspace diagonalization in iterative solution of the eigenvalue problem:
     one sub-group per band group will be used
     scalapack distributed-memory algorithm (size of sub-group:  4*  4 procs)

     Found symmetry operation: I + (  0.0000 -0.5000 -0.5000)
     This is a supercell, fractional translations are disabled

     Parallelization info
     --------------------
     sticks:   dense  smooth     PW     G-vecs:    dense   smooth      PW
     Min          89      35     11                 2515      633     107
     Max          90      37     12                 2518      635     110
     Sum        1425     569    177                40243    10131    1743



     bravais-lattice index     =            1
     lattice parameter (alat)  =       7.7068  a.u.
     unit-cell volume          =     457.7392 (a.u.)^3
     number of atoms/cell      =            4
     number of atomic types    =            1
     number of electrons       =        44.00
     number of Kohn-Sham states=           26
     kinetic-energy cutoff     =      30.0000  Ry
     charge density cutoff     =     300.0000  Ry
     scf convergence threshold =      1.0E-08
     mixing beta               =       0.3000
     number of iterations used =            8  plain     mixing
     Exchange-correlation= SLA  PW   PBE  PBE
                           (   1   4   3   4   0   0   0)

     celldm(1)=   7.706776  celldm(2)=   0.000000  celldm(3)=   0.000000
     celldm(4)=   0.000000  celldm(5)=   0.000000  celldm(6)=   0.000000

     crystal axes: (cart. coord. in units of alat)
               a(1) = (   1.000000   0.000000   0.000000 )  
               a(2) = (   0.000000   1.000000   0.000000 )  
               a(3) = (   0.000000   0.000000   1.000000 )  

     reciprocal axes: (cart. coord. in units 2 pi/alat)
               b(1) = (  1.000000  0.000000  0.000000 )  
               b(2) = (  0.000000  1.000000  0.000000 )  
               b(3) = (  0.000000  0.000000  1.000000 )  


     PseudoPot. # 1 for Au read from file:
     /expanse/lustre/projects/csd622/tpascal/nano110/qe/pseudo/au_pbe_v1.uspp.F.UPF
     MD5 check sum: 9d7f43293ad2c663164586bc4b293ffc
     Pseudo is Ultrasoft + core correction, Zval = 11.0
     Generated by new atomic code, or converted to UPF format
     Using radial grid of  985 points,  7 beta functions with: 
                l(1) =   0
                l(2) =   0
                l(3) =   1
                l(4) =   1
                l(5) =   2
                l(6) =   2
                l(7) =   3
     Q(r) pseudized with  6 coefficients,  rinner =    1.900   1.900   1.900
                                                       1.900   1.900   1.900
                                                       1.900

     atomic species   valence    mass     pseudopotential
        Au            11.00   196.96655     Au( 1.00)

     48 Sym. Ops., with inversion, found


                                    s                        frac. trans.

      isym =  1     identity                                     

 cryst.   s( 1) = (     1          0          0      )
                  (     0          1          0      )
                  (     0          0          1      )

 cart.    s( 1) = (  1.0000000  0.0000000  0.0000000 )
                  (  0.0000000  1.0000000  0.0000000 )
                  (  0.0000000  0.0000000  1.0000000 )


      isym =  2     180 deg rotation - cart. axis [0,0,1]        

 cryst.   s( 2) = (    -1          0          0      )
                  (     0         -1          0      )
                  (     0          0          1      )

 cart.    s( 2) = ( -1.0000000  0.0000000  0.0000000 )
                  (  0.0000000 -1.0000000  0.0000000 )
                  (  0.0000000  0.0000000  1.0000000 )


      isym =  3     180 deg rotation - cart. axis [0,1,0]        

 cryst.   s( 3) = (    -1          0          0      )
                  (     0          1          0      )
                  (     0          0         -1      )

 cart.    s( 3) = ( -1.0000000  0.0000000  0.0000000 )
                  (  0.0000000  1.0000000  0.0000000 )
                  (  0.0000000  0.0000000 -1.0000000 )


      isym =  4     180 deg rotation - cart. axis [1,0,0]        

 cryst.   s( 4) = (     1          0          0      )
                  (     0         -1          0      )
                  (     0          0         -1      )

 cart.    s( 4) = (  1.0000000  0.0000000  0.0000000 )
                  (  0.0000000 -1.0000000  0.0000000 )
                  (  0.0000000  0.0000000 -1.0000000 )


      isym =  5     180 deg rotation - cart. axis [1,1,0]        

 cryst.   s( 5) = (     0          1          0      )
                  (     1          0          0      )
                  (     0          0         -1      )

 cart.    s( 5) = (  0.0000000  1.0000000  0.0000000 )
                  (  1.0000000  0.0000000  0.0000000 )
                  (  0.0000000  0.0000000 -1.0000000 )


      isym =  6     180 deg rotation - cart. axis [1,-1,0]       

 cryst.   s( 6) = (     0         -1          0      )
                  (    -1          0          0      )
                  (     0          0         -1      )

 cart.    s( 6) = (  0.0000000 -1.0000000  0.0000000 )
                  ( -1.0000000  0.0000000  0.0000000 )
                  (  0.0000000  0.0000000 -1.0000000 )


      isym =  7      90 deg rotation - cart. axis [0,0,-1]       

 cryst.   s( 7) = (     0         -1          0      )
                  (     1          0          0      )
                  (     0          0          1      )

 cart.    s( 7) = (  0.0000000  1.0000000  0.0000000 )
                  ( -1.0000000  0.0000000  0.0000000 )
                  (  0.0000000  0.0000000  1.0000000 )


      isym =  8      90 deg rotation - cart. axis [0,0,1]        

 cryst.   s( 8) = (     0          1          0      )
                  (    -1          0          0      )
                  (     0          0          1      )

 cart.    s( 8) = (  0.0000000 -1.0000000  0.0000000 )
                  (  1.0000000  0.0000000  0.0000000 )
                  (  0.0000000  0.0000000  1.0000000 )


      isym =  9     180 deg rotation - cart. axis [1,0,1]        

 cryst.   s( 9) = (     0          0          1      )
                  (     0         -1          0      )
                  (     1          0          0      )

 cart.    s( 9) = (  0.0000000  0.0000000  1.0000000 )
                  (  0.0000000 -1.0000000  0.0000000 )
                  (  1.0000000  0.0000000  0.0000000 )


      isym = 10     180 deg rotation - cart. axis [-1,0,1]       

 cryst.   s(10) = (     0          0         -1      )
                  (     0         -1          0      )
                  (    -1          0          0      )

 cart.    s(10) = (  0.0000000  0.0000000 -1.0000000 )
                  (  0.0000000 -1.0000000  0.0000000 )
                  ( -1.0000000  0.0000000  0.0000000 )


      isym = 11      90 deg rotation - cart. axis [0,1,0]        

 cryst.   s(11) = (     0          0         -1      )
                  (     0          1          0      )
                  (     1          0          0      )

 cart.    s(11) = (  0.0000000  0.0000000  1.0000000 )
                  (  0.0000000  1.0000000  0.0000000 )
                  ( -1.0000000  0.0000000  0.0000000 )


      isym = 12      90 deg rotation - cart. axis [0,-1,0]       

 cryst.   s(12) = (     0          0          1      )
                  (     0          1          0      )
                  (    -1          0          0      )

 cart.    s(12) = (  0.0000000  0.0000000 -1.0000000 )
                  (  0.0000000  1.0000000  0.0000000 )
                  (  1.0000000  0.0000000  0.0000000 )


      isym = 13     180 deg rotation - cart. axis [0,1,1]        

 cryst.   s(13) = (    -1          0          0      )
                  (     0          0          1      )
                  (     0          1          0      )

 cart.    s(13) = ( -1.0000000  0.0000000  0.0000000 )
                  (  0.0000000  0.0000000  1.0000000 )
                  (  0.0000000  1.0000000  0.0000000 )


      isym = 14     180 deg rotation - cart. axis [0,1,-1]       

 cryst.   s(14) = (    -1          0          0      )
                  (     0          0         -1      )
                  (     0         -1          0      )

 cart.    s(14) = ( -1.0000000  0.0000000  0.0000000 )
                  (  0.0000000  0.0000000 -1.0000000 )
                  (  0.0000000 -1.0000000  0.0000000 )


      isym = 15      90 deg rotation - cart. axis [-1,0,0]       

 cryst.   s(15) = (     1          0          0      )
                  (     0          0         -1      )
                  (     0          1          0      )

 cart.    s(15) = (  1.0000000  0.0000000  0.0000000 )
                  (  0.0000000  0.0000000  1.0000000 )
                  (  0.0000000 -1.0000000  0.0000000 )


      isym = 16      90 deg rotation - cart. axis [1,0,0]        

 cryst.   s(16) = (     1          0          0      )
                  (     0          0          1      )
                  (     0         -1          0      )

 cart.    s(16) = (  1.0000000  0.0000000  0.0000000 )
                  (  0.0000000  0.0000000 -1.0000000 )
                  (  0.0000000  1.0000000  0.0000000 )


      isym = 17     120 deg rotation - cart. axis [-1,-1,-1]     

 cryst.   s(17) = (     0          0          1      )
                  (     1          0          0      )
                  (     0          1          0      )

 cart.    s(17) = (  0.0000000  1.0000000  0.0000000 )
                  (  0.0000000  0.0000000  1.0000000 )
                  (  1.0000000  0.0000000  0.0000000 )


      isym = 18     120 deg rotation - cart. axis [-1,1,1]       

 cryst.   s(18) = (     0          0         -1      )
                  (    -1          0          0      )
                  (     0          1          0      )

 cart.    s(18) = (  0.0000000 -1.0000000  0.0000000 )
                  (  0.0000000  0.0000000  1.0000000 )
                  ( -1.0000000  0.0000000  0.0000000 )


      isym = 19     120 deg rotation - cart. axis [1,1,-1]       

 cryst.   s(19) = (     0          0         -1      )
                  (     1          0          0      )
                  (     0         -1          0      )

 cart.    s(19) = (  0.0000000  1.0000000  0.0000000 )
                  (  0.0000000  0.0000000 -1.0000000 )
                  ( -1.0000000  0.0000000  0.0000000 )


      isym = 20     120 deg rotation - cart. axis [1,-1,1]       

 cryst.   s(20) = (     0          0          1      )
                  (    -1          0          0      )
                  (     0         -1          0      )

 cart.    s(20) = (  0.0000000 -1.0000000  0.0000000 )
                  (  0.0000000  0.0000000 -1.0000000 )
                  (  1.0000000  0.0000000  0.0000000 )


      isym = 21     120 deg rotation - cart. axis [1,1,1]        

 cryst.   s(21) = (     0          1          0      )
                  (     0          0          1      )
                  (     1          0          0      )

 cart.    s(21) = (  0.0000000  0.0000000  1.0000000 )
                  (  1.0000000  0.0000000  0.0000000 )
                  (  0.0000000  1.0000000  0.0000000 )


      isym = 22     120 deg rotation - cart. axis [-1,1,-1]      

 cryst.   s(22) = (     0         -1          0      )
                  (     0          0         -1      )
                  (     1          0          0      )

 cart.    s(22) = (  0.0000000  0.0000000  1.0000000 )
                  ( -1.0000000  0.0000000  0.0000000 )
                  (  0.0000000 -1.0000000  0.0000000 )


      isym = 23     120 deg rotation - cart. axis [1,-1,-1]      

 cryst.   s(23) = (     0         -1          0      )
                  (     0          0          1      )
                  (    -1          0          0      )

 cart.    s(23) = (  0.0000000  0.0000000 -1.0000000 )
                  ( -1.0000000  0.0000000  0.0000000 )
                  (  0.0000000  1.0000000  0.0000000 )


      isym = 24     120 deg rotation - cart. axis [-1,-1,1]      

 cryst.   s(24) = (     0          1          0      )
                  (     0          0         -1      )
                  (    -1          0          0      )

 cart.    s(24) = (  0.0000000  0.0000000 -1.0000000 )
                  (  1.0000000  0.0000000  0.0000000 )
                  (  0.0000000 -1.0000000  0.0000000 )


      isym = 25     inversion                                    

 cryst.   s(25) = (    -1          0          0      )
                  (     0         -1          0      )
                  (     0          0         -1      )

 cart.    s(25) = ( -1.0000000  0.0000000  0.0000000 )
                  (  0.0000000 -1.0000000  0.0000000 )
                  (  0.0000000  0.0000000 -1.0000000 )


      isym = 26     inv. 180 deg rotation - cart. axis [0,0,1]   

 cryst.   s(26) = (     1          0          0      )
                  (     0          1          0      )
                  (     0          0         -1      )

 cart.    s(26) = (  1.0000000  0.0000000  0.0000000 )
                  (  0.0000000  1.0000000  0.0000000 )
                  (  0.0000000  0.0000000 -1.0000000 )


      isym = 27     inv. 180 deg rotation - cart. axis [0,1,0]   

 cryst.   s(27) = (     1          0          0      )
                  (     0         -1          0      )
                  (     0          0          1      )

 cart.    s(27) = (  1.0000000  0.0000000  0.0000000 )
                  (  0.0000000 -1.0000000  0.0000000 )
                  (  0.0000000  0.0000000  1.0000000 )


      isym = 28     inv. 180 deg rotation - cart. axis [1,0,0]   

 cryst.   s(28) = (    -1          0          0      )
                  (     0          1          0      )
                  (     0          0          1      )

 cart.    s(28) = ( -1.0000000  0.0000000  0.0000000 )
                  (  0.0000000  1.0000000  0.0000000 )
                  (  0.0000000  0.0000000  1.0000000 )


      isym = 29     inv. 180 deg rotation - cart. axis [1,1,0]   

 cryst.   s(29) = (     0         -1          0      )
                  (    -1          0          0      )
                  (     0          0          1      )

 cart.    s(29) = (  0.0000000 -1.0000000  0.0000000 )
                  ( -1.0000000  0.0000000  0.0000000 )
                  (  0.0000000  0.0000000  1.0000000 )


      isym = 30     inv. 180 deg rotation - cart. axis [1,-1,0]  

 cryst.   s(30) = (     0          1          0      )
                  (     1          0          0      )
                  (     0          0          1      )

 cart.    s(30) = (  0.0000000  1.0000000  0.0000000 )
                  (  1.0000000  0.0000000  0.0000000 )
                  (  0.0000000  0.0000000  1.0000000 )


      isym = 31     inv.  90 deg rotation - cart. axis [0,0,-1]  

 cryst.   s(31) = (     0          1          0      )
                  (    -1          0          0      )
                  (     0          0         -1      )

 cart.    s(31) = (  0.0000000 -1.0000000  0.0000000 )
                  (  1.0000000  0.0000000  0.0000000 )
                  (  0.0000000  0.0000000 -1.0000000 )


      isym = 32     inv.  90 deg rotation - cart. axis [0,0,1]   

 cryst.   s(32) = (     0         -1          0      )
                  (     1          0          0      )
                  (     0          0         -1      )

 cart.    s(32) = (  0.0000000  1.0000000  0.0000000 )
                  ( -1.0000000  0.0000000  0.0000000 )
                  (  0.0000000  0.0000000 -1.0000000 )


      isym = 33     inv. 180 deg rotation - cart. axis [1,0,1]   

 cryst.   s(33) = (     0          0         -1      )
                  (     0          1          0      )
                  (    -1          0          0      )

 cart.    s(33) = (  0.0000000  0.0000000 -1.0000000 )
                  (  0.0000000  1.0000000  0.0000000 )
                  ( -1.0000000  0.0000000  0.0000000 )


      isym = 34     inv. 180 deg rotation - cart. axis [-1,0,1]  

 cryst.   s(34) = (     0          0          1      )
                  (     0          1          0      )
                  (     1          0          0      )

 cart.    s(34) = (  0.0000000  0.0000000  1.0000000 )
                  (  0.0000000  1.0000000  0.0000000 )
                  (  1.0000000  0.0000000  0.0000000 )


      isym = 35     inv.  90 deg rotation - cart. axis [0,1,0]   

 cryst.   s(35) = (     0          0          1      )
                  (     0         -1          0      )
                  (    -1          0          0      )

 cart.    s(35) = (  0.0000000  0.0000000 -1.0000000 )
                  (  0.0000000 -1.0000000  0.0000000 )
                  (  1.0000000  0.0000000  0.0000000 )


      isym = 36     inv.  90 deg rotation - cart. axis [0,-1,0]  

 cryst.   s(36) = (     0          0         -1      )
                  (     0         -1          0      )
                  (     1          0          0      )

 cart.    s(36) = (  0.0000000  0.0000000  1.0000000 )
                  (  0.0000000 -1.0000000  0.0000000 )
                  ( -1.0000000  0.0000000  0.0000000 )


      isym = 37     inv. 180 deg rotation - cart. axis [0,1,1]   

 cryst.   s(37) = (     1          0          0      )
                  (     0          0         -1      )
                  (     0         -1          0      )

 cart.    s(37) = (  1.0000000  0.0000000  0.0000000 )
                  (  0.0000000  0.0000000 -1.0000000 )
                  (  0.0000000 -1.0000000  0.0000000 )


      isym = 38     inv. 180 deg rotation - cart. axis [0,1,-1]  

 cryst.   s(38) = (     1          0          0      )
                  (     0          0          1      )
                  (     0          1          0      )

 cart.    s(38) = (  1.0000000  0.0000000  0.0000000 )
                  (  0.0000000  0.0000000  1.0000000 )
                  (  0.0000000  1.0000000  0.0000000 )


      isym = 39     inv.  90 deg rotation - cart. axis [-1,0,0]  

 cryst.   s(39) = (    -1          0          0      )
                  (     0          0          1      )
                  (     0         -1          0      )

 cart.    s(39) = ( -1.0000000  0.0000000  0.0000000 )
                  (  0.0000000  0.0000000 -1.0000000 )
                  (  0.0000000  1.0000000  0.0000000 )


      isym = 40     inv.  90 deg rotation - cart. axis [1,0,0]   

 cryst.   s(40) = (    -1          0          0      )
                  (     0          0         -1      )
                  (     0          1          0      )

 cart.    s(40) = ( -1.0000000  0.0000000  0.0000000 )
                  (  0.0000000  0.0000000  1.0000000 )
                  (  0.0000000 -1.0000000  0.0000000 )


      isym = 41     inv. 120 deg rotation - cart. axis [-1,-1,-1]

 cryst.   s(41) = (     0          0         -1      )
                  (    -1          0          0      )
                  (     0         -1          0      )

 cart.    s(41) = (  0.0000000 -1.0000000  0.0000000 )
                  (  0.0000000  0.0000000 -1.0000000 )
                  ( -1.0000000  0.0000000  0.0000000 )


      isym = 42     inv. 120 deg rotation - cart. axis [-1,1,1]  

 cryst.   s(42) = (     0          0          1      )
                  (     1          0          0      )
                  (     0         -1          0      )

 cart.    s(42) = (  0.0000000  1.0000000  0.0000000 )
                  (  0.0000000  0.0000000 -1.0000000 )
                  (  1.0000000  0.0000000  0.0000000 )


      isym = 43     inv. 120 deg rotation - cart. axis [1,1,-1]  

 cryst.   s(43) = (     0          0          1      )
                  (    -1          0          0      )
                  (     0          1          0      )

 cart.    s(43) = (  0.0000000 -1.0000000  0.0000000 )
                  (  0.0000000  0.0000000  1.0000000 )
                  (  1.0000000  0.0000000  0.0000000 )


      isym = 44     inv. 120 deg rotation - cart. axis [1,-1,1]  

 cryst.   s(44) = (     0          0         -1      )
                  (     1          0          0      )
                  (     0          1          0      )

 cart.    s(44) = (  0.0000000  1.0000000  0.0000000 )
                  (  0.0000000  0.0000000  1.0000000 )
                  ( -1.0000000  0.0000000  0.0000000 )


      isym = 45     inv. 120 deg rotation - cart. axis [1,1,1]   

 cryst.   s(45) = (     0         -1          0      )
                  (     0          0         -1      )
                  (    -1          0          0      )

 cart.    s(45) = (  0.0000000  0.0000000 -1.0000000 )
                  ( -1.0000000  0.0000000  0.0000000 )
                  (  0.0000000 -1.0000000  0.0000000 )


      isym = 46     inv. 120 deg rotation - cart. axis [-1,1,-1] 

 cryst.   s(46) = (     0          1          0      )
                  (     0          0          1      )
                  (    -1          0          0      )

 cart.    s(46) = (  0.0000000  0.0000000 -1.0000000 )
                  (  1.0000000  0.0000000  0.0000000 )
                  (  0.0000000  1.0000000  0.0000000 )


      isym = 47     inv. 120 deg rotation - cart. axis [1,-1,-1] 

 cryst.   s(47) = (     0          1          0      )
                  (     0          0         -1      )
                  (     1          0          0      )

 cart.    s(47) = (  0.0000000  0.0000000  1.0000000 )
                  (  1.0000000  0.0000000  0.0000000 )
                  (  0.0000000 -1.0000000  0.0000000 )


      isym = 48     inv. 120 deg rotation - cart. axis [-1,-1,1] 

 cryst.   s(48) = (     0         -1          0      )
                  (     0          0          1      )
                  (     1          0          0      )

 cart.    s(48) = (  0.0000000  0.0000000  1.0000000 )
                  ( -1.0000000  0.0000000  0.0000000 )
                  (  0.0000000  1.0000000  0.0000000 )


     point group O_h (m-3m) 
     there are 10 classes
     the character table:

       E     8C3   3C2   6C4   6C2'  i     8S6   3s_h  6S4   6s_d 
A_1g   1.00  1.00  1.00  1.00  1.00  1.00  1.00  1.00  1.00  1.00
A_2g   1.00  1.00  1.00 -1.00 -1.00  1.00  1.00  1.00 -1.00 -1.00
E_g    2.00 -1.00  2.00  0.00  0.00  2.00 -1.00  2.00  0.00  0.00
T_1g   3.00  0.00 -1.00  1.00 -1.00  3.00  0.00 -1.00  1.00 -1.00
T_2g   3.00  0.00 -1.00 -1.00  1.00  3.00  0.00 -1.00 -1.00  1.00
A_1u   1.00  1.00  1.00  1.00  1.00 -1.00 -1.00 -1.00 -1.00 -1.00
A_2u   1.00  1.00  1.00 -1.00 -1.00 -1.00 -1.00 -1.00  1.00  1.00
E_u    2.00 -1.00  2.00  0.00  0.00 -2.00  1.00 -2.00  0.00  0.00
T_1u   3.00  0.00 -1.00  1.00 -1.00 -3.00  0.00  1.00 -1.00  1.00
T_2u   3.00  0.00 -1.00 -1.00  1.00 -3.00  0.00  1.00  1.00 -1.00

     the symmetry operations in each class and the name of the first element:

     E        1
          identity                                               
     8C3     17   19   20   18   24   21   22   23
          120 deg rotation - cart. axis [-1,-1,-1]               
     3C2      2    4    3
          180 deg rotation - cart. axis [0,0,1]                  
     6C4      7    8   15   16   12   11
           90 deg rotation - cart. axis [0,0,-1]                 
     6C2'     5    6   14   13   10    9
          180 deg rotation - cart. axis [1,1,0]                  
     i       25
          inversion                                              
     8S6     41   43   44   42   48   45   46   47
          inv. 120 deg rotation - cart. axis [-1,-1,-1]          
     3s_h    26   28   27
          inv. 180 deg rotation - cart. axis [0,0,1]             
     6S4     31   32   39   40   36   35
          inv.  90 deg rotation - cart. axis [0,0,-1]            
     6s_d    29   30   38   37   34   33
          inv. 180 deg rotation - cart. axis [1,1,0]             

   Cartesian axes

     site n.     atom                  positions (alat units)
         1           Au  tau(   1) = (   0.0000000   0.0000000   0.0000000  )
         2           Au  tau(   2) = (   0.0000000   0.5000000   0.5000000  )
         3           Au  tau(   3) = (   0.5000000   0.0000000   0.5000000  )
         4           Au  tau(   4) = (   0.5000000   0.5000000   0.0000000  )

   Crystallographic axes

     site n.     atom                  positions (cryst. coord.)
         1           Au  tau(   1) = (  0.0000000  0.0000000  0.0000000  )
         2           Au  tau(   2) = (  0.0000000  0.5000000  0.5000000  )
         3           Au  tau(   3) = (  0.5000000  0.0000000  0.5000000  )
         4           Au  tau(   4) = (  0.5000000  0.5000000  0.0000000  )

     number of k points=    20  Gaussian smearing, width (Ry)=  0.0030
                       cart. coord. in units 2pi/alat
        k(    1) = (   0.0000000   0.0000000   0.0000000), wk =   0.0058309
        k(    2) = (   0.0000000   0.0000000   0.1428571), wk =   0.0349854
        k(    3) = (   0.0000000   0.0000000   0.2857143), wk =   0.0349854
        k(    4) = (   0.0000000   0.0000000   0.4285714), wk =   0.0349854
        k(    5) = (   0.0000000   0.1428571   0.1428571), wk =   0.0699708
        k(    6) = (   0.0000000   0.1428571   0.2857143), wk =   0.1399417
        k(    7) = (   0.0000000   0.1428571   0.4285714), wk =   0.1399417
        k(    8) = (   0.0000000   0.2857143   0.2857143), wk =   0.0699708
        k(    9) = (   0.0000000   0.2857143   0.4285714), wk =   0.1399417
        k(   10) = (   0.0000000   0.4285714   0.4285714), wk =   0.0699708
        k(   11) = (   0.1428571   0.1428571   0.1428571), wk =   0.0466472
        k(   12) = (   0.1428571   0.1428571   0.2857143), wk =   0.1399417
        k(   13) = (   0.1428571   0.1428571   0.4285714), wk =   0.1399417
        k(   14) = (   0.1428571   0.2857143   0.2857143), wk =   0.1399417
        k(   15) = (   0.1428571   0.2857143   0.4285714), wk =   0.2798834
        k(   16) = (   0.1428571   0.4285714   0.4285714), wk =   0.1399417
        k(   17) = (   0.2857143   0.2857143   0.2857143), wk =   0.0466472
        k(   18) = (   0.2857143   0.2857143   0.4285714), wk =   0.1399417
        k(   19) = (   0.2857143   0.4285714   0.4285714), wk =   0.1399417
        k(   20) = (   0.4285714   0.4285714   0.4285714), wk =   0.0466472

                       cryst. coord.
        k(    1) = (   0.0000000   0.0000000   0.0000000), wk =   0.0058309
        k(    2) = (   0.0000000   0.0000000   0.1428571), wk =   0.0349854
        k(    3) = (   0.0000000   0.0000000   0.2857143), wk =   0.0349854
        k(    4) = (   0.0000000   0.0000000   0.4285714), wk =   0.0349854
        k(    5) = (   0.0000000   0.1428571   0.1428571), wk =   0.0699708
        k(    6) = (   0.0000000   0.1428571   0.2857143), wk =   0.1399417
        k(    7) = (   0.0000000   0.1428571   0.4285714), wk =   0.1399417
        k(    8) = (   0.0000000   0.2857143   0.2857143), wk =   0.0699708
        k(    9) = (   0.0000000   0.2857143   0.4285714), wk =   0.1399417
        k(   10) = (   0.0000000   0.4285714   0.4285714), wk =   0.0699708
        k(   11) = (   0.1428571   0.1428571   0.1428571), wk =   0.0466472
        k(   12) = (   0.1428571   0.1428571   0.2857143), wk =   0.1399417
        k(   13) = (   0.1428571   0.1428571   0.4285714), wk =   0.1399417
        k(   14) = (   0.1428571   0.2857143   0.2857143), wk =   0.1399417
        k(   15) = (   0.1428571   0.2857143   0.4285714), wk =   0.2798834
        k(   16) = (   0.1428571   0.4285714   0.4285714), wk =   0.1399417
        k(   17) = (   0.2857143   0.2857143   0.2857143), wk =   0.0466472
        k(   18) = (   0.2857143   0.2857143   0.4285714), wk =   0.1399417
        k(   19) = (   0.2857143   0.4285714   0.4285714), wk =   0.1399417
        k(   20) = (   0.4285714   0.4285714   0.4285714), wk =   0.0466472

     Dense  grid:    40243 G-vectors     FFT dimensions: (  45,  45,  45)

     Smooth grid:    10131 G-vectors     FFT dimensions: (  27,  27,  27)

     Dynamical RAM for                 wfc:       0.03 MB

     Dynamical RAM for     wfc (w. buffer):       0.66 MB

     Dynamical RAM for           str. fact:       0.04 MB

     Dynamical RAM for           local pot:       0.00 MB

     Dynamical RAM for          nlocal pot:       0.12 MB

     Dynamical RAM for                qrad:       2.60 MB

     Dynamical RAM for          rho,v,vnew:       0.25 MB

     Dynamical RAM for               rhoin:       0.08 MB

     Dynamical RAM for            rho*nmix:       0.61 MB

     Dynamical RAM for           G-vectors:       0.15 MB

     Dynamical RAM for          h,s,v(r/c):       0.01 MB

     Dynamical RAM for          <psi|beta>:       0.04 MB

     Dynamical RAM for                 psi:       0.06 MB

     Dynamical RAM for                hpsi:       0.06 MB

     Dynamical RAM for                spsi:       0.06 MB

     Dynamical RAM for      wfcinit/wfcrot:       0.12 MB

     Dynamical RAM for           addusdens:      13.68 MB

     Dynamical RAM for          addusforce:      13.96 MB

     Dynamical RAM for         addusstress:      14.56 MB

     Estimated static dynamical RAM per process >       4.82 MB

     Estimated max dynamical RAM per process >      19.39 MB

     Estimated total dynamical RAM >     310.18 MB

     Initial potential from superposition of free atoms

     starting charge   43.99951, renormalised to   44.00000
     Starting wfcs are   36 randomized atomic wfcs

     total cpu time spent up to now is        0.3 secs

     Self-consistent Calculation

     iteration #  1     ecut=    30.00 Ry     beta= 0.30
     Davidson diagonalization with overlap
     ethr =  1.00E-02,  avg # of iterations =  2.0

     Threshold (ethr) on eigenvalues was too large:
     Diagonalizing with lowered threshold

     Davidson diagonalization with overlap
     ethr =  4.88E-04,  avg # of iterations =  1.9

     total cpu time spent up to now is        0.8 secs

     total energy              =    -459.92956816 Ry
     estimated scf accuracy    <       0.23502346 Ry

     iteration #  2     ecut=    30.00 Ry     beta= 0.30
     Davidson diagonalization with overlap
     ethr =  5.34E-04,  avg # of iterations =  1.1

     total cpu time spent up to now is        1.1 secs

     total energy              =    -459.93423683 Ry
     estimated scf accuracy    <       0.03573117 Ry

     iteration #  3     ecut=    30.00 Ry     beta= 0.30
     Davidson diagonalization with overlap
     ethr =  8.12E-05,  avg # of iterations =  2.0

     total cpu time spent up to now is        1.4 secs

     total energy              =    -459.94233395 Ry
     estimated scf accuracy    <       0.00285057 Ry

     iteration #  4     ecut=    30.00 Ry     beta= 0.30
     Davidson diagonalization with overlap
     ethr =  6.48E-06,  avg # of iterations =  3.0

     total cpu time spent up to now is        1.8 secs

     total energy              =    -459.94270697 Ry
     estimated scf accuracy    <       0.00145343 Ry

     iteration #  5     ecut=    30.00 Ry     beta= 0.30
     Davidson diagonalization with overlap
     ethr =  3.30E-06,  avg # of iterations =  1.4

     total cpu time spent up to now is        2.0 secs

     total energy              =    -459.94285219 Ry
     estimated scf accuracy    <       0.00001218 Ry

     iteration #  6     ecut=    30.00 Ry     beta= 0.30
     Davidson diagonalization with overlap
     ethr =  2.77E-08,  avg # of iterations =  5.7

     total cpu time spent up to now is        2.6 secs

     total energy              =    -459.94287384 Ry
     estimated scf accuracy    <       0.00002419 Ry

     iteration #  7     ecut=    30.00 Ry     beta= 0.30
     Davidson diagonalization with overlap
     ethr =  2.77E-08,  avg # of iterations =  1.0

     total cpu time spent up to now is        2.8 secs

     total energy              =    -459.94287009 Ry
     estimated scf accuracy    <       0.00000840 Ry

     iteration #  8     ecut=    30.00 Ry     beta= 0.30
     Davidson diagonalization with overlap
     ethr =  1.91E-08,  avg # of iterations =  2.0

     total cpu time spent up to now is        3.2 secs

     total energy              =    -459.94287209 Ry
     estimated scf accuracy    <       0.00000007 Ry

     iteration #  9     ecut=    30.00 Ry     beta= 0.30
     Davidson diagonalization with overlap
     ethr =  1.61E-10,  avg # of iterations =  5.8

     total cpu time spent up to now is        3.7 secs

     total energy              =    -459.94287217 Ry
     estimated scf accuracy    <       0.00000003 Ry

     iteration # 10     ecut=    30.00 Ry     beta= 0.30
     Davidson diagonalization with overlap
     ethr =  7.54E-11,  avg # of iterations =  2.0

     total cpu time spent up to now is        4.0 secs

     End of self-consistent calculation

          k = 0.0000 0.0000 0.0000 (  1309 PWs)   bands (ev):

     5.8253   8.6108   8.6108   8.6108   8.9274   8.9274   8.9274  11.0019
    11.0019  11.0019  12.5244  12.5244  13.6878  13.6878  13.6878  14.0615
    14.0615  14.0615  14.0615  14.0615  14.0615  16.7376  16.7376  16.7376
    21.5511  21.5511

     occupation numbers 
     1.0000   1.0000   1.0000   1.0000   1.0000   1.0000   1.0000   1.0000
     1.0000   1.0000   1.0000   1.0000   1.0000   1.0000   1.0000   1.0000
     1.0000   1.0000   1.0000   1.0000   1.0000   0.0000   0.0000   0.0000
     0.0000   0.0000

          k = 0.0000 0.0000 0.1429 (  1281 PWs)   bands (ev):

     6.0634   8.6892   8.7686   8.7687   9.0142   9.0602   9.0602  10.8782
    11.1093  11.1093  12.3928  12.5772  13.3192  13.3192  13.4978  13.4978
    13.6247  13.8333  13.8333  14.0619  14.0619  15.3473  17.6435  17.6435
    21.3150  21.3150

     occupation numbers 
     1.0000   1.0000   1.0000   1.0000   1.0000   1.0000   1.0000   1.0000
     1.0000   1.0000   1.0000   1.0000   1.0000   1.0000   1.0000   1.0000
     1.0000   1.0000   1.0000   1.0000   1.0000   1.0000   0.0000   0.0000
     0.0000   0.0000

          k = 0.0000 0.0000 0.2857 (  1278 PWs)   bands (ev):

     6.7491   8.8290   9.1871   9.1871   9.2644   9.4566   9.4566  10.5467
    11.4255  11.4255  12.0543  12.1120  12.1120  12.7276  12.9940  12.9940
    13.2646  13.2646  13.2721  13.4513  14.0627  14.0627  19.3228  19.3228
    20.8494  20.8494

     occupation numbers 
     1.0000   1.0000   1.0000   1.0000   1.0000   1.0000   1.0000   1.0000
     1.0000   1.0000   1.0000   1.0000   1.0000   1.0000   1.0000   1.0000
     1.0000   1.0000   1.0000   1.0000   1.0000   1.0000   0.0000   0.0000
     0.0000   0.0000

          k = 0.0000 0.0000 0.4286 (  1246 PWs)   bands (ev):

     7.7522   8.6333   9.6355   9.6355   9.6459  10.1014  10.1103  10.1103
    11.0067  11.0067  11.7162  11.9134  11.9296  11.9296  12.4649  12.4649
    12.5742  12.5742  12.9513  13.2093  14.0634  14.0634  20.5330  20.5330
    21.1499  21.1499

     occupation numbers 
     1.0000   1.0000   1.0000   1.0000   1.0000   1.0000   1.0000   1.0000
     1.0000   1.0000   1.0000   1.0000   1.0000   1.0000   1.0000   1.0000
     1.0000   1.0000   1.0000   1.0000   1.0000   1.0000   0.0000   0.0000
     0.0000   0.0000

          k = 0.0000 0.1429 0.1429 (  1275 PWs)   bands (ev):

     6.2939   8.8516   8.8516   8.8727   9.1421   9.1421   9.2272  10.8329
    11.1485  11.1871  12.3637  12.5647  12.9197  12.9197  12.9345  13.3394
    13.5317  13.5317  13.8320  13.8320  13.9092  16.2700  16.2700  18.3488
    20.9720  23.0290

     occupation numbers 
     1.0000   1.0000   1.0000   1.0000   1.0000   1.0000   1.0000   1.0000
     1.0000   1.0000   1.0000   1.0000   1.0000   1.0000   1.0000   1.0000
     1.0000   1.0000   1.0000   1.0000   1.0000   0.0000   0.0000   0.0000
     0.0000   0.0000

          k = 0.0000 0.1429 0.2857 (  1283 PWs)   bands (ev):

     6.9570   9.0039   9.1946   9.2864   9.3774   9.5226   9.6583  10.5621
    11.3803  11.4301  11.7571  11.9838  12.1161  12.1276  12.7537  12.9063
    13.0689  13.2605  13.3029  13.8282  13.8324  14.5260  17.6236  19.8609
    20.2385  22.4893

     occupation numbers 
     1.0000   1.0000   1.0000   1.0000   1.0000   1.0000   1.0000   1.0000
     1.0000   1.0000   1.0000   1.0000   1.0000   1.0000   1.0000   1.0000
     1.0000   1.0000   1.0000   1.0000   1.0000   1.0000   0.0000   0.0000
     0.0000   0.0000

          k = 0.0000 0.1429 0.4286 (  1264 PWs)   bands (ev):

     7.9298   8.8074   9.6770   9.7345   9.7632  10.1458  10.1538  10.1572
    10.7699  10.9870  11.3867  11.4092  11.9262  12.1864  12.4579  12.5413
    12.5690  12.7454  13.0883  13.5667  13.8205  13.8232  18.7429  19.5218
    21.6128  22.3687

     occupation numbers 
     1.0000   1.0000   1.0000   1.0000   1.0000   1.0000   1.0000   1.0000
     1.0000   1.0000   1.0000   1.0000   1.0000   1.0000   1.0000   1.0000
     1.0000   1.0000   1.0000   1.0000   1.0000   1.0000   0.0000   0.0000
     0.0000   0.0000

          k = 0.0000 0.2857 0.2857 (  1272 PWs)   bands (ev):

     7.5504   9.3503   9.4844   9.4844   9.7099   9.7099  10.0731  10.5071
    11.1122  11.1122  11.3375  11.5554  11.5635  12.0440  12.6319  12.9460
    12.9460  13.0699  13.2521  13.2521  13.4799  15.7521  15.7521  19.0096
    21.1617  23.0008

     occupation numbers 
     1.0000   1.0000   1.0000   1.0000   1.0000   1.0000   1.0000   1.0000
     1.0000   1.0000   1.0000   1.0000   1.0000   1.0000   1.0000   1.0000
     1.0000   1.0000   1.0000   1.0000   1.0000   0.0000   0.0000   0.0000
     0.0000   0.0000

          k = 0.0000 0.2857 0.4286 (  1266 PWs)   bands (ev):

     8.4174   9.2643   9.7172   9.9846  10.0906  10.2377  10.2842  10.3085
    10.3742  10.8447  10.9001  11.1456  11.9643  12.0750  12.3337  12.4928
    12.5021  12.5698  13.2546  13.3044  13.6619  14.4788  16.8632  17.8836
    22.7943  22.9108

     occupation numbers 
     1.0000   1.0000   1.0000   1.0000   1.0000   1.0000   1.0000   1.0000
     1.0000   1.0000   1.0000   1.0000   1.0000   1.0000   1.0000   1.0000
     1.0000   1.0000   1.0000   1.0000   1.0000   1.0000   0.0000   0.0000
     0.0000   0.0000

          k = 0.0000 0.4286 0.4286 (  1278 PWs)   bands (ev):

     9.0696   9.6991   9.6991   9.7504  10.3390  10.3390  10.3708  10.6276
    10.6276  10.6476  10.6833  11.0125  11.8749  12.0657  12.1349  12.1349
    12.1725  12.6331  12.6331  12.8581  14.4754  15.4747  15.4747  16.5434
    23.3633  24.3095

     occupation numbers 
     1.0000   1.0000   1.0000   1.0000   1.0000   1.0000   1.0000   1.0000
     1.0000   1.0000   1.0000   1.0000   1.0000   1.0000   1.0000   1.0000
     1.0000   1.0000   1.0000   1.0000   1.0000   0.8964   0.8964   0.0000
     0.0000   0.0000

          k = 0.1429 0.1429 0.1429 (  1280 PWs)   bands (ev):

     6.5131   8.9466   8.9466   8.9466   9.3144   9.3144   9.3144  10.8157
    11.2039  11.2039  12.4622  12.4622  12.6065  12.6065  12.6065  13.1168
    13.1168  13.1168  13.9030  13.9030  13.9030  16.8745  16.8745  16.8745
    22.4152  22.4152

     occupation numbers 
     1.0000   1.0000   1.0000   1.0000   1.0000   1.0000   1.0000   1.0000
     1.0000   1.0000   1.0000   1.0000   1.0000   1.0000   1.0000   1.0000
     1.0000   1.0000   1.0000   1.0000   1.0000   0.0000   0.0000   0.0000
     0.0000   0.0000

          k = 0.1429 0.1429 0.2857 (  1268 PWs)   bands (ev):

     7.1409   9.0740   9.2504   9.2504   9.5644   9.7470   9.7470  10.6171
    11.3504  11.3812  11.6973  11.6973  11.8277  12.2820  12.6457  12.7290
    12.7907  12.7907  13.7666  13.7998  13.7998  14.9565  18.0269  18.0269
    21.3076  21.3076

     occupation numbers 
     1.0000   1.0000   1.0000   1.0000   1.0000   1.0000   1.0000   1.0000
     1.0000   1.0000   1.0000   1.0000   1.0000   1.0000   1.0000   1.0000
     1.0000   1.0000   1.0000   1.0000   1.0000   1.0000   0.0000   0.0000
     0.0000   0.0000

          k = 0.1429 0.1429 0.4286 (  1273 PWs)   bands (ev):

     8.0539   8.8764   9.7390   9.7390   9.9073  10.1159  10.1159  10.2746
    10.9345  10.9345  11.2260  11.2863  11.6950  12.1345  12.4154  12.4154
    12.5701  13.0945  13.4716  13.5026  13.7145  13.7145  19.0233  19.0233
    20.4593  20.4593

     occupation numbers 
     1.0000   1.0000   1.0000   1.0000   1.0000   1.0000   1.0000   1.0000
     1.0000   1.0000   1.0000   1.0000   1.0000   1.0000   1.0000   1.0000
     1.0000   1.0000   1.0000   1.0000   1.0000   1.0000   0.0000   0.0000
     0.0000   0.0000

          k = 0.1429 0.2857 0.2857 (  1262 PWs)   bands (ev):

     7.6563   9.3031   9.3031   9.3368  10.0247  10.0247  10.1421  10.6780
    11.1484  11.1484  11.3128  11.3851  11.4522  12.3533  12.3533  12.3909
    12.3909  12.9910  13.6527  13.6683  13.6683  15.9835  15.9835  18.8897
    19.6707  22.5699

     occupation numbers 
     1.0000   1.0000   1.0000   1.0000   1.0000   1.0000   1.0000   1.0000
     1.0000   1.0000   1.0000   1.0000   1.0000   1.0000   1.0000   1.0000
     1.0000   1.0000   1.0000   1.0000   1.0000   0.0000   0.0000   0.0000
     0.0000   0.0000

          k = 0.1429 0.2857 0.4286 (  1266 PWs)   bands (ev):

     8.3795   9.0449   9.5694   9.6145  10.2687  10.2933  10.3939  10.5915
    10.8698  10.9228  11.1346  11.1951  11.5519  11.9118  12.0853  12.1597
    12.6290  13.2608  13.4739  13.4799  13.5704  14.4556  17.0752  18.1865
    20.0607  21.1786

     occupation numbers 
     1.0000   1.0000   1.0000   1.0000   1.0000   1.0000   1.0000   1.0000
     1.0000   1.0000   1.0000   1.0000   1.0000   1.0000   1.0000   1.0000
     1.0000   1.0000   1.0000   1.0000   1.0000   1.0000   0.0000   0.0000
     0.0000   0.0000

          k = 0.1429 0.4286 0.4286 (  1276 PWs)   bands (ev):

     8.8004   9.2323   9.2323   9.3937  10.5107  10.6353  10.6353  10.8177
    11.0308  11.0308  11.1434  11.3492  11.4926  11.7590  11.7590  11.7624
    12.6382  13.0638  13.0638  13.1663  14.3890  15.4757  15.4757  16.6466
    21.1181  22.4506

     occupation numbers 
     1.0000   1.0000   1.0000   1.0000   1.0000   1.0000   1.0000   1.0000
     1.0000   1.0000   1.0000   1.0000   1.0000   1.0000   1.0000   1.0000
     1.0000   1.0000   1.0000   1.0000   1.0000   0.8897   0.8897   0.0000
     0.0000   0.0000

          k = 0.2857 0.2857 0.2857 (  1262 PWs)   bands (ev):

     7.9481   9.1830   9.1830   9.1830  10.3923  10.3923  10.3923  11.1168
    11.2368  11.2368  11.2974  11.2974  11.2974  11.8885  11.8885  11.8885
    12.8686  12.8686  13.8035  13.8035  13.8035  16.6456  16.6456  16.6456
    20.5864  20.5864

     occupation numbers 
     1.0000   1.0000   1.0000   1.0000   1.0000   1.0000   1.0000   1.0000
     1.0000   1.0000   1.0000   1.0000   1.0000   1.0000   1.0000   1.0000
     1.0000   1.0000   1.0000   1.0000   1.0000   0.0000   0.0000   0.0000
     0.0000   0.0000

          k = 0.2857 0.2857 0.4286 (  1270 PWs)   bands (ev):

     8.3633   8.8174   9.1572   9.1572  10.4683  10.4683  10.7751  11.0736
    11.2711  11.2945  11.3939  11.4988  11.5860  11.5860  11.7102  11.7102
    13.2801  13.3614  13.6587  13.6587  13.7048  14.6554  17.5010  17.5010
    19.1060  19.1060

     occupation numbers 
     1.0000   1.0000   1.0000   1.0000   1.0000   1.0000   1.0000   1.0000
     1.0000   1.0000   1.0000   1.0000   1.0000   1.0000   1.0000   1.0000
     1.0000   1.0000   1.0000   1.0000   1.0000   1.0000   0.0000   0.0000
     0.0000   0.0000

          k = 0.2857 0.4286 0.4286 (  1264 PWs)   bands (ev):

     8.4778   8.7519   8.7519   8.8651  10.6729  10.7688  10.7688  11.0080
    11.1491  11.3007  11.3007  11.3455  12.0666  12.0666  12.1708  12.1812
    13.1988  13.5623  13.5623  13.5678  14.1175  15.4673  15.4673  16.6656
    19.1023  20.3448

     occupation numbers 
     1.0000   1.0000   1.0000   1.0000   1.0000   1.0000   1.0000   1.0000
     1.0000   1.0000   1.0000   1.0000   1.0000   1.0000   1.0000   1.0000
     1.0000   1.0000   1.0000   1.0000   1.0000   0.9356   0.9356   0.0000
     0.0000   0.0000

          k = 0.4286 0.4286 0.4286 (  1280 PWs)   bands (ev):

     8.3650   8.4987   8.4987   8.4987  10.8777  10.8777  10.8777  11.0022
    11.0022  11.0720  11.0720  11.0720  12.9736  12.9736  12.9736  13.6077
    13.6077  13.7242  13.7437  13.7437  13.7437  15.4373  15.4373  15.4373
    19.0047  19.0047

     occupation numbers 
     1.0000   1.0000   1.0000   1.0000   1.0000   1.0000   1.0000   1.0000
     1.0000   1.0000   1.0000   1.0000   1.0000   1.0000   1.0000   1.0000
     1.0000   1.0000   1.0000   1.0000   1.0000   0.9947   0.9947   0.9947
     0.0000   0.0000

     the Fermi energy is    15.5111 ev

!    total energy              =    -459.94287218 Ry
     estimated scf accuracy    <          7.0E-09 Ry
     smearing contrib. (-TS)   =      -0.00024459 Ry
     internal energy E=F+TS    =    -459.94262758 Ry

     The total energy is F=E-TS. E is the sum of the following terms:
     one-electron contribution =      43.52552769 Ry
     hartree contribution      =      33.59171304 Ry
     xc contribution           =    -249.12190718 Ry
     ewald contribution        =    -287.93796113 Ry

     convergence has been achieved in  10 iterations

     Forces acting on atoms (cartesian axes, Ry/au):

     atom    1 type  1   force =     0.00000000    0.00000000    0.00000000
     atom    2 type  1   force =     0.00000000    0.00000000    0.00000000
     atom    3 type  1   force =     0.00000000    0.00000000    0.00000000
     atom    4 type  1   force =     0.00000000    0.00000000    0.00000000
     The non-local contrib.  to forces
     atom    1 type  1   force =     0.00000000    0.00000000    0.00000000
     atom    2 type  1   force =     0.00000000    0.00000000    0.00000000
     atom    3 type  1   force =     0.00000000    0.00000000    0.00000000
     atom    4 type  1   force =     0.00000000    0.00000000    0.00000000
     The ionic contribution  to forces
     atom    1 type  1   force =    -0.00000000   -0.00000000   -0.00000000
     atom    2 type  1   force =    -0.00000000    0.00000000    0.00000000
     atom    3 type  1   force =     0.00000000   -0.00000000    0.00000000
     atom    4 type  1   force =     0.00000000    0.00000000   -0.00000000
     The local contribution  to forces
     atom    1 type  1   force =     0.00000000    0.00000000    0.00000000
     atom    2 type  1   force =     0.00000000    0.00000000    0.00000000
     atom    3 type  1   force =     0.00000000    0.00000000    0.00000000
     atom    4 type  1   force =     0.00000000    0.00000000    0.00000000
     The core correction contribution to forces
     atom    1 type  1   force =    -0.00000000    0.00000000    0.00000000
     atom    2 type  1   force =     0.00000000    0.00000000    0.00000000
     atom    3 type  1   force =     0.00000000   -0.00000000    0.00000000
     atom    4 type  1   force =     0.00000000    0.00000000    0.00000000
     The Hubbard contrib.    to forces
     atom    1 type  1   force =     0.00000000    0.00000000    0.00000000
     atom    2 type  1   force =     0.00000000    0.00000000    0.00000000
     atom    3 type  1   force =     0.00000000    0.00000000    0.00000000
     atom    4 type  1   force =     0.00000000    0.00000000    0.00000000
     The SCF correction term to forces
     atom    1 type  1   force =     0.00000000    0.00000000   -0.00000000
     atom    2 type  1   force =     0.00000000   -0.00000000    0.00000000
     atom    3 type  1   force =    -0.00000000   -0.00000000    0.00000000
     atom    4 type  1   force =     0.00000000    0.00000000    0.00000000

     Total force =     0.000000     Total SCF correction =     0.000000


     Computing stress (Cartesian axis) and pressure

          total   stress  (Ry/bohr**3)                   (kbar)     P=       88.95
   0.00060464   0.00000000   0.00000000           88.95        0.00        0.00
   0.00000000   0.00060464   0.00000000            0.00       88.95        0.00
   0.00000000   0.00000000   0.00060464            0.00        0.00       88.95

     kinetic stress (kbar)  21579.27      0.00      0.00
                                0.00  21579.27      0.00
                                0.00      0.00  21579.27

     local   stress (kbar)  27858.71     -0.00     -0.00
                               -0.00  27858.71     -0.00
                               -0.00     -0.00  27858.71

     nonloc. stress (kbar) -13486.39      0.00      0.00
                                0.00 -13486.39      0.00
                                0.00      0.00 -13486.39

     hartree stress (kbar)   3598.49     -0.00      0.00
                               -0.00   3598.49     -0.00
                                0.00     -0.00   3598.49

     exc-cor stress (kbar)  55722.57     -0.00      0.00
                               -0.00  55722.57      0.00
                                0.00      0.00  55722.57

     corecor stress (kbar) -64338.54     -0.00     -0.00
                               -0.00 -64338.54     -0.00
                               -0.00     -0.00 -64338.54

     ewald   stress (kbar) -30845.17      0.00      0.00
                                0.00 -30845.17     -0.00
                                0.00     -0.00 -30845.17

     hubbard stress (kbar)      0.00      0.00      0.00
                                0.00      0.00      0.00
                                0.00      0.00      0.00

     DFT-D   stress (kbar)      0.00      0.00      0.00
                                0.00      0.00      0.00
                                0.00      0.00      0.00

     XDM     stress (kbar)      0.00      0.00      0.00
                                0.00      0.00      0.00
                                0.00      0.00      0.00

     dft-nl  stress (kbar)      0.00      0.00      0.00
                                0.00      0.00      0.00
                                0.00      0.00      0.00

     TS-vdW  stress (kbar)      0.00      0.00      0.00
                                0.00      0.00      0.00
                                0.00      0.00      0.00



     Writing output data file ./au.save/

     init_run     :      0.18s CPU      0.20s WALL (       1 calls)
     electrons    :      3.55s CPU      3.68s WALL (       1 calls)
     forces       :      0.06s CPU      0.06s WALL (       1 calls)
     stress       :      0.19s CPU      0.20s WALL (       1 calls)

     Called by init_run:
     wfcinit      :      0.10s CPU      0.11s WALL (       1 calls)
     wfcinit:atom :      0.00s CPU      0.00s WALL (      20 calls)
     wfcinit:wfcr :      0.09s CPU      0.10s WALL (      20 calls)
     potinit      :      0.01s CPU      0.01s WALL (       1 calls)
     hinit0       :      0.04s CPU      0.05s WALL (       1 calls)

     Called by electrons:
     c_bands      :      2.80s CPU      2.90s WALL (      11 calls)
     sum_band     :      0.52s CPU      0.55s WALL (      11 calls)
     v_of_rho     :      0.04s CPU      0.05s WALL (      11 calls)
     v_h          :      0.00s CPU      0.00s WALL (      11 calls)
     v_xc         :      0.05s CPU      0.05s WALL (      13 calls)
     newd         :      0.19s CPU      0.19s WALL (      11 calls)
     mix_rho      :      0.01s CPU      0.01s WALL (      11 calls)

     Called by c_bands:
     init_us_2    :      0.02s CPU      0.02s WALL (     500 calls)
     cegterg      :      2.74s CPU      2.83s WALL (     220 calls)

     Called by sum_band:
     sum_band:wei :      0.00s CPU      0.00s WALL (      11 calls)
     sum_band:loo :      0.24s CPU      0.25s WALL (      11 calls)
     sum_band:buf :      0.00s CPU      0.00s WALL (     220 calls)
     sum_band:ini :      0.01s CPU      0.01s WALL (     220 calls)
     sum_band:cal :      0.04s CPU      0.04s WALL (     220 calls)
     sum_band:bec :      0.01s CPU      0.01s WALL (     220 calls)
     addusdens    :      0.12s CPU      0.12s WALL (      11 calls)
     addusd:skk   :      0.00s CPU      0.00s WALL (      11 calls)
     addusd:dgemm :      0.04s CPU      0.05s WALL (      11 calls)
     addusd:qvan2 :      0.06s CPU      0.06s WALL (      11 calls)

     Called by *egterg:
     cdiaghg      :      1.02s CPU      1.04s WALL (     758 calls)
     cegterg:over :      0.22s CPU      0.22s WALL (     558 calls)
     cegterg:upda :      0.07s CPU      0.08s WALL (     558 calls)
     cegterg:last :      0.16s CPU      0.16s WALL (     466 calls)
     cdiaghg:chol :      0.05s CPU      0.05s WALL (     758 calls)
     cdiaghg:inve :      0.02s CPU      0.02s WALL (     758 calls)
     cdiaghg:para :      0.10s CPU      0.10s WALL (    1516 calls)
     h_psi        :      1.24s CPU      1.30s WALL (     798 calls)
     s_psi        :      0.06s CPU      0.06s WALL (     798 calls)
     g_psi        :      0.00s CPU      0.00s WALL (     558 calls)

     Called by h_psi:
     h_psi:calbec :      0.13s CPU      0.13s WALL (     798 calls)
     vloc_psi     :      1.05s CPU      1.10s WALL (     798 calls)
     add_vuspsi   :      0.06s CPU      0.07s WALL (     798 calls)

     General routines
     calbec       :      0.19s CPU      0.19s WALL (    1118 calls)
     fft          :      0.04s CPU      0.05s WALL (     167 calls)
     ffts         :      0.00s CPU      0.00s WALL (      22 calls)
     fftw         :      1.18s CPU      1.24s WALL (   37650 calls)
     interpolate  :      0.00s CPU      0.00s WALL (      11 calls)

     Parallel routines
     fft_scatt_xy :      0.06s CPU      0.06s WALL (   37839 calls)
     fft_scatt_yz :      0.78s CPU      0.82s WALL (   37839 calls)

     PWSCF        :      4.16s CPU      4.41s WALL


   This run was terminated on:  21: 8:31  24Nov2021            

=------------------------------------------------------------------------------=
   JOB DONE.
=------------------------------------------------------------------------------=
