
     Program PWSCF v.6.7MaX starts on 10Dec2021 at  2:41: 1 

     This program is part of the open-source Quantum ESPRESSO suite
     for quantum simulation of materials; please cite
         "P. Giannozzi et al., J. Phys.:Condens. Matter 21 395502 (2009);
         "P. Giannozzi et al., J. Phys.:Condens. Matter 29 465901 (2017);
          URL http://www.quantum-espresso.org", 
     in publications or presentations arising from this work. More details at
     http://www.quantum-espresso.org/quote

     Parallel version (MPI), running on    64 processors

     MPI processes distributed on     1 nodes
     R & G space division:  proc/nbgrp/npool/nimage =      64
     Reading input from pt_surface.100.qe.7655837.2_2_3.in

     Current dimensions of program PWSCF are:
     Max number of different atomic species (ntypx) = 10
     Max number of k-points (npk) =  40000
     Max angular momentum in pseudopotentials (lmaxx) =  3

     Subspace diagonalization in iterative solution of the eigenvalue problem:
     one sub-group per band group will be used
     scalapack distributed-memory algorithm (size of sub-group:  8*  8 procs)

     Found symmetry operation: I + (  0.0000 -0.5000  0.0000)
     This is a supercell, fractional translations are disabled

     Parallelization info
     --------------------
     sticks:   dense  smooth     PW     G-vecs:    dense   smooth      PW
     Min          84      33      9                12836     3237     471
     Max          85      34     10                12851     3250     486
     Sum        5393    2161    593               821805   207673   30405



     bravais-lattice index     =            8
     lattice parameter (alat)  =      15.0300  a.u.
     unit-cell volume          =    9361.8636 (a.u.)^3
     number of atoms/cell      =           48
     number of atomic types    =            1
     number of electrons       =       768.00
     number of Kohn-Sham states=          461
     kinetic-energy cutoff     =      30.0000  Ry
     charge density cutoff     =     300.0000  Ry
     scf convergence threshold =      1.0E-06
     mixing beta               =       0.3000
     number of iterations used =            8  plain     mixing
     energy convergence thresh.=      1.0E-04
     force convergence thresh. =      1.0E-03
     Exchange-correlation=  SLA  PW   PBX  PBC
                           (   1   4   3   4   0   0   0)
     nstep                     =           50


     celldm(1)=  15.030012  celldm(2)=   1.000000  celldm(3)=   2.757302
     celldm(4)=   0.000000  celldm(5)=   0.000000  celldm(6)=   0.000000

     crystal axes: (cart. coord. in units of alat)
               a(1) = (   1.000000   0.000000   0.000000 )  
               a(2) = (   0.000000   1.000000   0.000000 )  
               a(3) = (   0.000000   0.000000   2.757302 )  

     reciprocal axes: (cart. coord. in units 2 pi/alat)
               b(1) = (  1.000000  0.000000  0.000000 )  
               b(2) = (  0.000000  1.000000  0.000000 )  
               b(3) = (  0.000000  0.000000  0.362673 )  


     PseudoPot. # 1 for Pt read from file:
     /expanse/lustre/projects/csd622/tpascal/nano110/qe/pseudo/pt_pbe_v1.4.uspp.F.UPF
     MD5 check sum: f09d6de1a584b5a045c4fc126da2d0c4
     Pseudo is Ultrasoft + core correction, Zval = 16.0
     Generated by new atomic code, or converted to UPF format
     Using radial grid of  985 points,  6 beta functions with: 
                l(1) =   0
                l(2) =   0
                l(3) =   1
                l(4) =   1
                l(5) =   2
                l(6) =   2
     Q(r) pseudized with  8 coefficients,  rinner =    1.300   1.300   1.300
                                                       1.300   1.300

     atomic species   valence    mass     pseudopotential
        Pt            16.00   195.08400     Pt( 1.00)

      8 Sym. Ops. (no inversion) found


                                    s                        frac. trans.

      isym =  1     identity                                     

 cryst.   s( 1) = (     1          0          0      )
                  (     0          1          0      )
                  (     0          0          1      )

 cart.    s( 1) = (  1.0000000  0.0000000  0.0000000 )
                  (  0.0000000  1.0000000  0.0000000 )
                  (  0.0000000  0.0000000  1.0000000 )


      isym =  2     180 deg rotation - cart. axis [0,0,1]        

 cryst.   s( 2) = (    -1          0          0      )
                  (     0         -1          0      )
                  (     0          0          1      )

 cart.    s( 2) = ( -1.0000000  0.0000000  0.0000000 )
                  (  0.0000000 -1.0000000  0.0000000 )
                  (  0.0000000  0.0000000  1.0000000 )


      isym =  3      90 deg rotation - cart. axis [0,0,-1]       

 cryst.   s( 3) = (     0         -1          0      )
                  (     1          0          0      )
                  (     0          0          1      )

 cart.    s( 3) = (  0.0000000  1.0000000  0.0000000 )
                  ( -1.0000000  0.0000000  0.0000000 )
                  (  0.0000000  0.0000000  1.0000000 )


      isym =  4      90 deg rotation - cart. axis [0,0,1]        

 cryst.   s( 4) = (     0          1          0      )
                  (    -1          0          0      )
                  (     0          0          1      )

 cart.    s( 4) = (  0.0000000 -1.0000000  0.0000000 )
                  (  1.0000000  0.0000000  0.0000000 )
                  (  0.0000000  0.0000000  1.0000000 )


      isym =  5     inv. 180 deg rotation - cart. axis [0,1,0]   

 cryst.   s( 5) = (     1          0          0      )
                  (     0         -1          0      )
                  (     0          0          1      )

 cart.    s( 5) = (  1.0000000  0.0000000  0.0000000 )
                  (  0.0000000 -1.0000000  0.0000000 )
                  (  0.0000000  0.0000000  1.0000000 )


      isym =  6     inv. 180 deg rotation - cart. axis [1,0,0]   

 cryst.   s( 6) = (    -1          0          0      )
                  (     0          1          0      )
                  (     0          0          1      )

 cart.    s( 6) = ( -1.0000000  0.0000000  0.0000000 )
                  (  0.0000000  1.0000000  0.0000000 )
                  (  0.0000000  0.0000000  1.0000000 )


      isym =  7     inv. 180 deg rotation - cart. axis [1,1,0]   

 cryst.   s( 7) = (     0         -1          0      )
                  (    -1          0          0      )
                  (     0          0          1      )

 cart.    s( 7) = (  0.0000000 -1.0000000  0.0000000 )
                  ( -1.0000000  0.0000000  0.0000000 )
                  (  0.0000000  0.0000000  1.0000000 )


      isym =  8     inv. 180 deg rotation - cart. axis [1,-1,0]  

 cryst.   s( 8) = (     0          1          0      )
                  (     1          0          0      )
                  (     0          0          1      )

 cart.    s( 8) = (  0.0000000  1.0000000  0.0000000 )
                  (  1.0000000  0.0000000  0.0000000 )
                  (  0.0000000  0.0000000  1.0000000 )


     point group C_4v (4mm) 
     there are  5 classes
     the character table:

       E     2C4   C2    2s_v  2s_d 
A_1    1.00  1.00  1.00  1.00  1.00
A_2    1.00  1.00  1.00 -1.00 -1.00
B_1    1.00 -1.00  1.00  1.00 -1.00
B_2    1.00 -1.00  1.00 -1.00  1.00
E      2.00  0.00 -2.00  0.00  0.00

     the symmetry operations in each class and the name of the first element:

     E        1
          identity                                               
     2C4      3    4
           90 deg rotation - cart. axis [0,0,-1]                 
     C2       2
          180 deg rotation - cart. axis [0,0,1]                  
     2s_v     5    6
          inv. 180 deg rotation - cart. axis [0,1,0]             
     2s_d     7    8
          inv. 180 deg rotation - cart. axis [1,1,0]             

   Cartesian axes

     site n.     atom                  positions (alat units)
         1           Pt  tau(   1) = (   0.0000000   0.0000000   0.0000000  )
         2           Pt  tau(   2) = (   0.0000000   0.0000000   0.5000000  )
         3           Pt  tau(   3) = (   0.0000000   0.0000000   1.0000000  )
         4           Pt  tau(   4) = (   0.0000000   0.5000000   0.0000000  )
         5           Pt  tau(   5) = (   0.0000000   0.5000000   0.5000000  )
         6           Pt  tau(   6) = (   0.0000000   0.5000000   1.0000000  )
         7           Pt  tau(   7) = (   0.5000000   0.0000000   0.0000000  )
         8           Pt  tau(   8) = (   0.5000000   0.0000000   0.5000000  )
         9           Pt  tau(   9) = (   0.5000000   0.0000000   1.0000000  )
        10           Pt  tau(  10) = (   0.5000000   0.5000000   0.0000000  )
        11           Pt  tau(  11) = (   0.5000000   0.5000000   0.5000000  )
        12           Pt  tau(  12) = (   0.5000000   0.5000000   1.0000000  )
        13           Pt  tau(  13) = (   0.0000000   0.2500000   0.2500000  )
        14           Pt  tau(  14) = (   0.0000000   0.2500000   0.7500000  )
        15           Pt  tau(  15) = (   0.0000000   0.2500000   1.2500000  )
        16           Pt  tau(  16) = (   0.0000000   0.7500000   0.2500000  )
        17           Pt  tau(  17) = (   0.0000000   0.7500000   0.7500000  )
        18           Pt  tau(  18) = (   0.0000000   0.7500000   1.2500000  )
        19           Pt  tau(  19) = (   0.5000000   0.2500000   0.2500000  )
        20           Pt  tau(  20) = (   0.5000000   0.2500000   0.7500000  )
        21           Pt  tau(  21) = (   0.5000000   0.2500000   1.2500000  )
        22           Pt  tau(  22) = (   0.5000000   0.7500000   0.2500000  )
        23           Pt  tau(  23) = (   0.5000000   0.7500000   0.7500000  )
        24           Pt  tau(  24) = (   0.5000000   0.7500000   1.2500000  )
        25           Pt  tau(  25) = (   0.2500000   0.0000000   0.2500000  )
        26           Pt  tau(  26) = (   0.2500000   0.0000000   0.7500000  )
        27           Pt  tau(  27) = (   0.2500000   0.0000000   1.2500000  )
        28           Pt  tau(  28) = (   0.2500000   0.5000000   0.2500000  )
        29           Pt  tau(  29) = (   0.2500000   0.5000000   0.7500000  )
        30           Pt  tau(  30) = (   0.2500000   0.5000000   1.2500000  )
        31           Pt  tau(  31) = (   0.7500000   0.0000000   0.2500000  )
        32           Pt  tau(  32) = (   0.7500000   0.0000000   0.7500000  )
        33           Pt  tau(  33) = (   0.7500000   0.0000000   1.2500000  )
        34           Pt  tau(  34) = (   0.7500000   0.5000000   0.2500000  )
        35           Pt  tau(  35) = (   0.7500000   0.5000000   0.7500000  )
        36           Pt  tau(  36) = (   0.7500000   0.5000000   1.2500000  )
        37           Pt  tau(  37) = (   0.2500000   0.2500000   0.0000000  )
        38           Pt  tau(  38) = (   0.2500000   0.2500000   0.5000000  )
        39           Pt  tau(  39) = (   0.2500000   0.2500000   1.0000000  )
        40           Pt  tau(  40) = (   0.2500000   0.7500000   0.0000000  )
        41           Pt  tau(  41) = (   0.2500000   0.7500000   0.5000000  )
        42           Pt  tau(  42) = (   0.2500000   0.7500000   1.0000000  )
        43           Pt  tau(  43) = (   0.7500000   0.2500000   0.0000000  )
        44           Pt  tau(  44) = (   0.7500000   0.2500000   0.5000000  )
        45           Pt  tau(  45) = (   0.7500000   0.2500000   1.0000000  )
        46           Pt  tau(  46) = (   0.7500000   0.7500000   0.0000000  )
        47           Pt  tau(  47) = (   0.7500000   0.7500000   0.5000000  )
        48           Pt  tau(  48) = (   0.7500000   0.7500000   1.0000000  )

   Crystallographic axes

     site n.     atom                  positions (cryst. coord.)
         1           Pt  tau(   1) = (  0.0000000  0.0000000  0.0000000  )
         2           Pt  tau(   2) = (  0.0000000  0.0000000  0.1813367  )
         3           Pt  tau(   3) = (  0.0000000  0.0000000  0.3626734  )
         4           Pt  tau(   4) = (  0.0000000  0.5000000  0.0000000  )
         5           Pt  tau(   5) = (  0.0000000  0.5000000  0.1813367  )
         6           Pt  tau(   6) = (  0.0000000  0.5000000  0.3626734  )
         7           Pt  tau(   7) = (  0.5000000  0.0000000  0.0000000  )
         8           Pt  tau(   8) = (  0.5000000  0.0000000  0.1813367  )
         9           Pt  tau(   9) = (  0.5000000  0.0000000  0.3626734  )
        10           Pt  tau(  10) = (  0.5000000  0.5000000  0.0000000  )
        11           Pt  tau(  11) = (  0.5000000  0.5000000  0.1813367  )
        12           Pt  tau(  12) = (  0.5000000  0.5000000  0.3626734  )
        13           Pt  tau(  13) = (  0.0000000  0.2500000  0.0906683  )
        14           Pt  tau(  14) = (  0.0000000  0.2500000  0.2720050  )
        15           Pt  tau(  15) = (  0.0000000  0.2500000  0.4533417  )
        16           Pt  tau(  16) = (  0.0000000  0.7500000  0.0906683  )
        17           Pt  tau(  17) = (  0.0000000  0.7500000  0.2720050  )
        18           Pt  tau(  18) = (  0.0000000  0.7500000  0.4533417  )
        19           Pt  tau(  19) = (  0.5000000  0.2500000  0.0906683  )
        20           Pt  tau(  20) = (  0.5000000  0.2500000  0.2720050  )
        21           Pt  tau(  21) = (  0.5000000  0.2500000  0.4533417  )
        22           Pt  tau(  22) = (  0.5000000  0.7500000  0.0906683  )
        23           Pt  tau(  23) = (  0.5000000  0.7500000  0.2720050  )
        24           Pt  tau(  24) = (  0.5000000  0.7500000  0.4533417  )
        25           Pt  tau(  25) = (  0.2500000  0.0000000  0.0906683  )
        26           Pt  tau(  26) = (  0.2500000  0.0000000  0.2720050  )
        27           Pt  tau(  27) = (  0.2500000  0.0000000  0.4533417  )
        28           Pt  tau(  28) = (  0.2500000  0.5000000  0.0906683  )
        29           Pt  tau(  29) = (  0.2500000  0.5000000  0.2720050  )
        30           Pt  tau(  30) = (  0.2500000  0.5000000  0.4533417  )
        31           Pt  tau(  31) = (  0.7500000  0.0000000  0.0906683  )
        32           Pt  tau(  32) = (  0.7500000  0.0000000  0.2720050  )
        33           Pt  tau(  33) = (  0.7500000  0.0000000  0.4533417  )
        34           Pt  tau(  34) = (  0.7500000  0.5000000  0.0906683  )
        35           Pt  tau(  35) = (  0.7500000  0.5000000  0.2720050  )
        36           Pt  tau(  36) = (  0.7500000  0.5000000  0.4533417  )
        37           Pt  tau(  37) = (  0.2500000  0.2500000  0.0000000  )
        38           Pt  tau(  38) = (  0.2500000  0.2500000  0.1813367  )
        39           Pt  tau(  39) = (  0.2500000  0.2500000  0.3626734  )
        40           Pt  tau(  40) = (  0.2500000  0.7500000  0.0000000  )
        41           Pt  tau(  41) = (  0.2500000  0.7500000  0.1813367  )
        42           Pt  tau(  42) = (  0.2500000  0.7500000  0.3626734  )
        43           Pt  tau(  43) = (  0.7500000  0.2500000  0.0000000  )
        44           Pt  tau(  44) = (  0.7500000  0.2500000  0.1813367  )
        45           Pt  tau(  45) = (  0.7500000  0.2500000  0.3626734  )
        46           Pt  tau(  46) = (  0.7500000  0.7500000  0.0000000  )
        47           Pt  tau(  47) = (  0.7500000  0.7500000  0.1813367  )
        48           Pt  tau(  48) = (  0.7500000  0.7500000  0.3626734  )

     number of k points=     6  Gaussian smearing, width (Ry)=  0.0030
                       cart. coord. in units 2pi/alat
        k(    1) = (   0.0000000   0.0000000   0.0000000), wk =   0.1250000
        k(    2) = (   0.0000000   0.2500000   0.0000000), wk =   0.5000000
        k(    3) = (   0.0000000  -0.5000000   0.0000000), wk =   0.2500000
        k(    4) = (   0.2500000   0.2500000   0.0000000), wk =   0.5000000
        k(    5) = (   0.2500000  -0.5000000   0.0000000), wk =   0.5000000
        k(    6) = (  -0.5000000  -0.5000000   0.0000000), wk =   0.1250000

                       cryst. coord.
        k(    1) = (   0.0000000   0.0000000   0.0000000), wk =   0.1250000
        k(    2) = (   0.0000000   0.2500000   0.0000000), wk =   0.5000000
        k(    3) = (   0.0000000  -0.5000000   0.0000000), wk =   0.2500000
        k(    4) = (   0.2500000   0.2500000   0.0000000), wk =   0.5000000
        k(    5) = (   0.2500000  -0.5000000   0.0000000), wk =   0.5000000
        k(    6) = (  -0.5000000  -0.5000000   0.0000000), wk =   0.1250000

     Dense  grid:   821805 G-vectors     FFT dimensions: (  90,  90, 240)

     Smooth grid:   207673 G-vectors     FFT dimensions: (  54,  54, 150)

     Dynamical RAM for                 wfc:       2.85 MB

     Dynamical RAM for     wfc (w. buffer):      19.94 MB

     Dynamical RAM for           str. fact:       0.20 MB

     Dynamical RAM for           local pot:       0.00 MB

     Dynamical RAM for          nlocal pot:       5.34 MB

     Dynamical RAM for                qrad:       1.39 MB

     Dynamical RAM for          rho,v,vnew:       1.33 MB

     Dynamical RAM for               rhoin:       0.44 MB

     Dynamical RAM for            rho*nmix:       3.14 MB

     Dynamical RAM for           G-vectors:       0.76 MB

     Dynamical RAM for          h,s,v(r/c):       0.61 MB

     Dynamical RAM for          <psi|beta>:       6.08 MB

     Dynamical RAM for                 psi:       5.70 MB

     Dynamical RAM for                hpsi:       5.70 MB

     Dynamical RAM for                spsi:       5.70 MB

     Dynamical RAM for      wfcinit/wfcrot:      14.72 MB

     Dynamical RAM for           addusdens:      45.87 MB

     Dynamical RAM for          addusforce:      64.58 MB

     Dynamical RAM for         addusstress:      39.40 MB

     Estimated static dynamical RAM per process >      34.17 MB

     Estimated max dynamical RAM per process >      98.75 MB

     Estimated total dynamical RAM >       6.17 GB

     Initial potential from superposition of free atoms

     starting charge  743.99946, renormalised to  768.00000

     negative rho (up, down):  9.101E+00 0.000E+00
     Starting wfcs are  576 randomized atomic wfcs

     total cpu time spent up to now is        8.5 secs

     Self-consistent Calculation

     iteration #  1     ecut=    30.00 Ry     beta= 0.30
     Davidson diagonalization with overlap
     ethr =  1.00E-02,  avg # of iterations =  7.0

     negative rho (up, down):  8.690E+00 0.000E+00

     total cpu time spent up to now is       32.7 secs

     total energy              =  -10077.97888076 Ry
     estimated scf accuracy    <     110.38648058 Ry

     iteration #  2     ecut=    30.00 Ry     beta= 0.30
     Davidson diagonalization with overlap
     ethr =  1.00E-02,  avg # of iterations =  8.2

     negative rho (up, down):  8.669E+00 0.000E+00

     total cpu time spent up to now is       59.4 secs

     total energy              =  -10018.21722920 Ry
     estimated scf accuracy    <    3160.34561952 Ry

     iteration #  3     ecut=    30.00 Ry     beta= 0.30
     Davidson diagonalization with overlap
     ethr =  1.00E-02,  avg # of iterations =  5.2

     negative rho (up, down):  8.602E+00 0.000E+00

     total cpu time spent up to now is       82.2 secs

     total energy              =  -10107.61802502 Ry
     estimated scf accuracy    <      26.18004709 Ry

     iteration #  4     ecut=    30.00 Ry     beta= 0.30
     Davidson diagonalization with overlap
     ethr =  3.41E-03,  avg # of iterations =  2.8

     negative rho (up, down):  8.567E+00 0.000E+00

     total cpu time spent up to now is       98.5 secs

     total energy              =  -10109.12121877 Ry
     estimated scf accuracy    <      45.40085545 Ry

     iteration #  5     ecut=    30.00 Ry     beta= 0.30
     Davidson diagonalization with overlap
     ethr =  3.41E-03,  avg # of iterations =  2.3

     negative rho (up, down):  8.564E+00 0.000E+00

     total cpu time spent up to now is      112.6 secs

     total energy              =  -10109.69722394 Ry
     estimated scf accuracy    <      92.68198926 Ry

     iteration #  6     ecut=    30.00 Ry     beta= 0.30
     Davidson diagonalization with overlap
     ethr =  3.41E-03,  avg # of iterations =  1.5

     negative rho (up, down):  8.521E+00 0.000E+00

     total cpu time spent up to now is      125.4 secs

     total energy              =  -10110.51996704 Ry
     estimated scf accuracy    <     173.51003683 Ry

     iteration #  7     ecut=    30.00 Ry     beta= 0.30
     Davidson diagonalization with overlap
     ethr =  3.41E-03,  avg # of iterations =  2.2

     negative rho (up, down):  8.509E+00 0.000E+00

     total cpu time spent up to now is      139.2 secs

     total energy              =  -10112.10049584 Ry
     estimated scf accuracy    <      36.68641307 Ry

     iteration #  8     ecut=    30.00 Ry     beta= 0.30
     Davidson diagonalization with overlap
     ethr =  3.41E-03,  avg # of iterations =  2.0

     negative rho (up, down):  8.496E+00 0.000E+00

     total cpu time spent up to now is      152.4 secs

     total energy              =  -10111.97348962 Ry
     estimated scf accuracy    <      13.18789672 Ry

     iteration #  9     ecut=    30.00 Ry     beta= 0.30
     Davidson diagonalization with overlap
     ethr =  1.72E-03,  avg # of iterations =  2.0

     negative rho (up, down):  8.476E+00 0.000E+00

     total cpu time spent up to now is      165.7 secs

     total energy              =  -10112.07054717 Ry
     estimated scf accuracy    <       1.78830103 Ry

     iteration # 10     ecut=    30.00 Ry     beta= 0.30
     Davidson diagonalization with overlap
     ethr =  2.33E-04,  avg # of iterations =  8.2

     negative rho (up, down):  8.470E+00 0.000E+00

     total cpu time spent up to now is      183.5 secs

     total energy              =  -10112.09302848 Ry
     estimated scf accuracy    <       2.06626660 Ry

     iteration # 11     ecut=    30.00 Ry     beta= 0.30
     Davidson diagonalization with overlap
     ethr =  2.33E-04,  avg # of iterations =  1.2

     negative rho (up, down):  8.462E+00 0.000E+00

     total cpu time spent up to now is      195.8 secs

     total energy              =  -10112.09124879 Ry
     estimated scf accuracy    <       0.72362683 Ry

     iteration # 12     ecut=    30.00 Ry     beta= 0.30
     Davidson diagonalization with overlap
     ethr =  9.42E-05,  avg # of iterations =  9.2

     negative rho (up, down):  8.456E+00 0.000E+00

     total cpu time spent up to now is      214.1 secs

     total energy              =  -10112.10242731 Ry
     estimated scf accuracy    <       0.29232671 Ry

     iteration # 13     ecut=    30.00 Ry     beta= 0.30
     Davidson diagonalization with overlap
     ethr =  3.81E-05,  avg # of iterations =  6.3

     negative rho (up, down):  8.453E+00 0.000E+00

     total cpu time spent up to now is      230.3 secs

     total energy              =  -10112.10349820 Ry
     estimated scf accuracy    <       0.53848826 Ry

     iteration # 14     ecut=    30.00 Ry     beta= 0.30
     Davidson diagonalization with overlap
     ethr =  3.81E-05,  avg # of iterations =  1.0

     negative rho (up, down):  8.452E+00 0.000E+00

     total cpu time spent up to now is      242.4 secs

     total energy              =  -10112.10663872 Ry
     estimated scf accuracy    <       0.00910566 Ry

     iteration # 15     ecut=    30.00 Ry     beta= 0.30
     Davidson diagonalization with overlap
     c_bands:  2 eigenvalues not converged
     ethr =  1.19E-06,  avg # of iterations = 11.8

     negative rho (up, down):  8.451E+00 0.000E+00

     total cpu time spent up to now is      262.4 secs

     total energy              =  -10112.10699434 Ry
     estimated scf accuracy    <       0.00180206 Ry

     iteration # 16     ecut=    30.00 Ry     beta= 0.30
     Davidson diagonalization with overlap
     ethr =  2.35E-07,  avg # of iterations =  3.3

     negative rho (up, down):  8.451E+00 0.000E+00

     total cpu time spent up to now is      276.9 secs

     total energy              =  -10112.10709430 Ry
     estimated scf accuracy    <       0.00196711 Ry

     iteration # 17     ecut=    30.00 Ry     beta= 0.30
     Davidson diagonalization with overlap
     ethr =  2.35E-07,  avg # of iterations =  3.8

     negative rho (up, down):  8.451E+00 0.000E+00

     total cpu time spent up to now is      292.1 secs

     total energy              =  -10112.10711959 Ry
     estimated scf accuracy    <       0.00173532 Ry

     iteration # 18     ecut=    30.00 Ry     beta= 0.30
     Davidson diagonalization with overlap
     ethr =  2.26E-07,  avg # of iterations =  1.2

     negative rho (up, down):  8.451E+00 0.000E+00

     total cpu time spent up to now is      304.3 secs

     total energy              =  -10112.10718026 Ry
     estimated scf accuracy    <       0.00055462 Ry

     iteration # 19     ecut=    30.00 Ry     beta= 0.30
     Davidson diagonalization with overlap
     ethr =  7.22E-08,  avg # of iterations =  2.2

     negative rho (up, down):  8.450E+00 0.000E+00

     total cpu time spent up to now is      318.5 secs

     total energy              =  -10112.10722845 Ry
     estimated scf accuracy    <       0.00056160 Ry

     iteration # 20     ecut=    30.00 Ry     beta= 0.30
     Davidson diagonalization with overlap
     ethr =  7.22E-08,  avg # of iterations =  5.0

     negative rho (up, down):  8.450E+00 0.000E+00

     total cpu time spent up to now is      333.3 secs

     total energy              =  -10112.10717607 Ry
     estimated scf accuracy    <       0.00475643 Ry

     iteration # 21     ecut=    30.00 Ry     beta= 0.30
     Davidson diagonalization with overlap
     ethr =  7.22E-08,  avg # of iterations =  1.7

     negative rho (up, down):  8.451E+00 0.000E+00

     total cpu time spent up to now is      345.6 secs

     total energy              =  -10112.10724622 Ry
     estimated scf accuracy    <       0.00036782 Ry

     iteration # 22     ecut=    30.00 Ry     beta= 0.30
     Davidson diagonalization with overlap
     ethr =  4.79E-08,  avg # of iterations =  2.7

     negative rho (up, down):  8.451E+00 0.000E+00

     total cpu time spent up to now is      358.6 secs

     total energy              =  -10112.10726351 Ry
     estimated scf accuracy    <       0.00001099 Ry

     iteration # 23     ecut=    30.00 Ry     beta= 0.30
     Davidson diagonalization with overlap
     ethr =  1.43E-09,  avg # of iterations =  1.7

     negative rho (up, down):  8.451E+00 0.000E+00

     total cpu time spent up to now is      370.6 secs

     total energy              =  -10112.10726359 Ry
     estimated scf accuracy    <       0.00000724 Ry

     iteration # 24     ecut=    30.00 Ry     beta= 0.30
     Davidson diagonalization with overlap
     ethr =  9.42E-10,  avg # of iterations =  1.0

     negative rho (up, down):  8.451E+00 0.000E+00

     total cpu time spent up to now is      381.2 secs

     total energy              =  -10112.10726272 Ry
     estimated scf accuracy    <       0.00014309 Ry

     iteration # 25     ecut=    30.00 Ry     beta= 0.30
     Davidson diagonalization with overlap
     ethr =  9.42E-10,  avg # of iterations =  1.0

     negative rho (up, down):  8.451E+00 0.000E+00

     total cpu time spent up to now is      391.8 secs

     total energy              =  -10112.10726356 Ry
     estimated scf accuracy    <       0.00005039 Ry

     iteration # 26     ecut=    30.00 Ry     beta= 0.30
     Davidson diagonalization with overlap
     ethr =  9.42E-10,  avg # of iterations =  1.0

     negative rho (up, down):  8.451E+00 0.000E+00

     total cpu time spent up to now is      402.3 secs

     total energy              =  -10112.10726371 Ry
     estimated scf accuracy    <       0.00000468 Ry

     iteration # 27     ecut=    30.00 Ry     beta= 0.30
     Davidson diagonalization with overlap
     ethr =  6.09E-10,  avg # of iterations =  1.0

     negative rho (up, down):  8.451E+00 0.000E+00

     total cpu time spent up to now is      412.9 secs

     total energy              =  -10112.10726371 Ry
     estimated scf accuracy    <       0.00000148 Ry

     iteration # 28     ecut=    30.00 Ry     beta= 0.30
     Davidson diagonalization with overlap
     ethr =  1.92E-10,  avg # of iterations =  1.0

     negative rho (up, down):  8.451E+00 0.000E+00

     total cpu time spent up to now is      423.4 secs

     total energy              =  -10112.10726376 Ry
     estimated scf accuracy    <       0.00000242 Ry

     iteration # 29     ecut=    30.00 Ry     beta= 0.30
     Davidson diagonalization with overlap
     ethr =  1.92E-10,  avg # of iterations =  1.0

     negative rho (up, down):  8.451E+00 0.000E+00

     total cpu time spent up to now is      434.1 secs

     End of self-consistent calculation

          k = 0.0000 0.0000 0.0000 ( 26017 PWs)   bands (ev):

   -43.9012 -43.9012 -43.9011 -43.9011 -43.8850 -43.8850 -43.8748 -43.8092
   -43.8092 -43.8092 -43.8092 -43.8017 -43.8017 -43.8017 -43.8017 -43.8008
   -43.8008 -43.7998 -43.7998 -43.7997 -43.7997 -43.7754 -43.7754 -43.7754
   -43.7754 -43.7747 -43.7619 -43.7619 -43.7619 -43.7619 -43.7165 -43.7165
   -43.7014 -43.7014 -43.7014 -43.7014 -43.6870 -43.6870 -43.6862 -43.6862
   -43.6776 -43.6776 -43.6776 -43.6776 -43.6728 -43.6728 -43.6727 -43.6727
   -43.6650 -43.6650 -43.6611 -43.6609 -43.6579 -43.6547 -43.6547 -43.6547
   -43.6547 -43.6369 -43.6369 -43.6369 -43.6369 -43.6250 -43.6250 -43.6250
   -43.6250 -43.6135 -43.6135 -43.6134 -43.6134 -43.6036 -43.6036 -43.6036
   -43.6036 -43.6021 -43.6021 -43.5978 -43.5978 -43.5977 -43.5977 -43.5849
   -43.5849 -43.5849 -43.5849 -43.5788 -43.5788 -43.5788 -43.5787 -43.5672
   -43.5327 -43.5327 -43.5251 -43.5251 -43.5250 -43.5250 -43.5191 -43.5191
   -43.1683 -43.1683 -43.1681 -43.1681 -43.1548 -43.1548 -43.1546 -43.1546
   -43.0626 -43.0626 -43.0626 -43.0626 -43.0624 -43.0624 -43.0624 -43.0624
   -43.0617 -43.0617 -43.0617 -43.0617 -43.0615 -43.0615 -43.0615 -43.0615
   -42.9673 -42.9673 -42.9671 -42.9671 -42.9530 -42.9530 -42.9528 -42.9528
   -42.8695 -42.8692 -42.8542 -42.8542 -42.8542 -42.8542 -42.8541 -42.8541
   -42.8541 -42.8541 -42.8538 -42.8538 -42.8536 -42.8536 -42.8422 -42.8421
    -0.4657   0.5054   1.7458   2.1410   2.1410   2.1410   2.1410   2.2730
     2.2730   2.2730   2.2730   2.4051   2.5767   2.5767   2.8535   2.8535
     2.8535   2.8535   2.9033   2.9068   2.9068   2.9068   2.9068   2.9758
     2.9758   2.9921   3.0109   3.2302   3.2303   3.3557   3.5919   3.5919
     3.5919   3.5919   3.6585   3.6585   3.8390   3.8390   3.8390   3.8390
     3.8728   3.8729   3.8729   3.8729   3.9477   4.0612   4.0612   4.0612
     4.0612   4.1146   4.1147   4.1147   4.1147   4.1543   4.1544   4.3777
     4.3777   4.3777   4.3777   4.4236   4.4236   4.4236   4.4236   4.5880
     4.6072   4.6072   4.6072   4.6073   4.6648   4.6648   4.6733   4.6733
     4.6733   4.6733   4.8572   4.8572   4.8572   4.8572   4.8813   4.8813
     4.8813   4.8813   5.0789   5.0789   5.0789   5.0789   5.1495   5.1544
     5.1544   5.1544   5.1544   5.1831   5.1831   5.1832   5.1832   5.3872
     5.4288   5.4288   5.4288   5.4288   5.4884   5.4884   5.4884   5.4884
     5.5418   5.5418   5.5418   5.5418   5.5960   5.5960   5.6479   5.6479
     5.6479   5.6479   5.9010   5.9010   5.9011   5.9011   5.9043   5.9043
     5.9043   5.9043   5.9309   5.9309   6.0889   6.0889   6.0889   6.0889
     6.1668   6.1668   6.5624   6.5689   6.6916   6.6916   6.6916   6.6916
     6.6983   6.6984   6.6984   6.6984   6.7367   6.7367   6.7367   6.7367
     6.7789   6.7789   6.7789   6.7789   6.8186   6.8186   6.8186   6.8186
     6.8784   6.8784   6.8784   6.8784   6.9136   6.9136   6.9136   6.9136
     6.9829   6.9829   6.9879   6.9879   6.9879   6.9879   7.1577   7.1659
     7.1659   7.1659   7.1659   7.2304   7.2304   7.2304   7.2304   7.2939
     7.2939   7.2939   7.2939   7.3623   7.3860   7.3860   7.4788   7.4788
     7.4788   7.4788   7.4902   7.4902   7.4902   7.4902   7.5258   7.5377
     7.5377   7.8372   7.8372   7.8372   7.8372   7.8475   7.8926   7.8926
     7.8926   7.8926   7.9294   7.9294   8.0180   8.2228   8.2228   8.2228
     8.2228   8.2368   8.3481   8.3482   8.4380   8.4380   8.4381   8.4381
     8.5955   8.5955   8.5955   8.5955   8.6251   8.6401   8.6401   8.6401
     8.6401   8.6998   8.6998   8.6998   8.6998   8.8073   8.8073   8.8125
     8.8125   8.8469   8.8469   8.9572   8.9572   8.9572   8.9572   9.0198
     9.0717   9.2179   9.2179   9.2179   9.2179   9.2886   9.2886   9.3805
     9.3805   9.4553   9.4554   9.6528   9.6528   9.6528   9.6528   9.7383
     9.7383   9.7383   9.7383   9.9756   9.9758   9.9983  10.6008  10.6008
    10.6008  10.6008  10.7713  10.7713  10.7713  10.7713  10.7940  10.7940
    10.7940  10.7940  10.9464  11.7585  11.7585  12.1925  12.1925  12.1925
    12.1925  13.1527  13.1527  13.1529  13.1529  13.6364  13.6364  13.9178
    13.9178  13.9178  13.9178  14.3705  15.0690  15.3917  15.3917  15.3917
    15.3917  15.6421  15.6421  15.7136  15.7136  15.7137  15.7137  16.0465
    16.0465  16.5322  16.5322  16.5322  16.5322  16.7097  16.7098  16.9663
    17.1255  17.1255  17.1260  17.1260  17.2589

     occupation numbers 
     1.0000   1.0000   1.0000   1.0000   1.0000   1.0000   1.0000   1.0000
     1.0000   1.0000   1.0000   1.0000   1.0000   1.0000   1.0000   1.0000
     1.0000   1.0000   1.0000   1.0000   1.0000   1.0000   1.0000   1.0000
     1.0000   1.0000   1.0000   1.0000   1.0000   1.0000   1.0000   1.0000
     1.0000   1.0000   1.0000   1.0000   1.0000   1.0000   1.0000   1.0000
     1.0000   1.0000   1.0000   1.0000   1.0000   1.0000   1.0000   1.0000
     1.0000   1.0000   1.0000   1.0000   1.0000   1.0000   1.0000   1.0000
     1.0000   1.0000   1.0000   1.0000   1.0000   1.0000   1.0000   1.0000
     1.0000   1.0000   1.0000   1.0000   1.0000   1.0000   1.0000   1.0000
     1.0000   1.0000   1.0000   1.0000   1.0000   1.0000   1.0000   1.0000
     1.0000   1.0000   1.0000   1.0000   1.0000   1.0000   1.0000   1.0000
     1.0000   1.0000   1.0000   1.0000   1.0000   1.0000   1.0000   1.0000
     1.0000   1.0000   1.0000   1.0000   1.0000   1.0000   1.0000   1.0000
     1.0000   1.0000   1.0000   1.0000   1.0000   1.0000   1.0000   1.0000
     1.0000   1.0000   1.0000   1.0000   1.0000   1.0000   1.0000   1.0000
     1.0000   1.0000   1.0000   1.0000   1.0000   1.0000   1.0000   1.0000
     1.0000   1.0000   1.0000   1.0000   1.0000   1.0000   1.0000   1.0000
     1.0000   1.0000   1.0000   1.0000   1.0000   1.0000   1.0000   1.0000
     1.0000   1.0000   1.0000   1.0000   1.0000   1.0000   1.0000   1.0000
     1.0000   1.0000   1.0000   1.0000   1.0000   1.0000   1.0000   1.0000
     1.0000   1.0000   1.0000   1.0000   1.0000   1.0000   1.0000   1.0000
     1.0000   1.0000   1.0000   1.0000   1.0000   1.0000   1.0000   1.0000
     1.0000   1.0000   1.0000   1.0000   1.0000   1.0000   1.0000   1.0000
     1.0000   1.0000   1.0000   1.0000   1.0000   1.0000   1.0000   1.0000
     1.0000   1.0000   1.0000   1.0000   1.0000   1.0000   1.0000   1.0000
     1.0000   1.0000   1.0000   1.0000   1.0000   1.0000   1.0000   1.0000
     1.0000   1.0000   1.0000   1.0000   1.0000   1.0000   1.0000   1.0000
     1.0000   1.0000   1.0000   1.0000   1.0000   1.0000   1.0000   1.0000
     1.0000   1.0000   1.0000   1.0000   1.0000   1.0000   1.0000   1.0000
     1.0000   1.0000   1.0000   1.0000   1.0000   1.0000   1.0000   1.0000
     1.0000   1.0000   1.0000   1.0000   1.0000   1.0000   1.0000   1.0000
     1.0000   1.0000   1.0000   1.0000   1.0000   1.0000   1.0000   1.0000
     1.0000   1.0000   1.0000   1.0000   1.0000   1.0000   1.0000   1.0000
     1.0000   1.0000   1.0000   1.0000   1.0000   1.0000   1.0000   1.0000
     1.0000   1.0000   1.0000   1.0000   1.0000   1.0000   1.0000   1.0000
     1.0000   1.0000   1.0000   1.0000   1.0000   1.0000   1.0000   1.0000
     1.0000   1.0000   1.0000   1.0000   1.0000   1.0000   1.0000   1.0000
     1.0000   1.0000   1.0000   1.0000   1.0000   1.0000   1.0000   1.0000
     1.0000   1.0000   1.0000   1.0000   1.0000   1.0000   1.0000   1.0000
     1.0000   1.0000   1.0000   1.0000   1.0000   1.0000   1.0000   1.0000
     1.0000   1.0000   1.0000   1.0000   1.0000   1.0000   1.0000   1.0000
     1.0000   1.0000   1.0000   1.0000   1.0000   1.0000   1.0000   1.0000
     1.0000   1.0000   1.0000   1.0000   1.0000   1.0000   1.0000   1.0000
     1.0000   1.0000   1.0000   1.0000   1.0000   1.0000   1.0000   1.0000
     1.0000   1.0000   1.0000   1.0000   1.0000   1.0000   1.0000   1.0000
     1.0000   1.0000   1.0000   1.0000   1.0000   1.0000   1.0000   1.0000
     1.0000   1.0000   1.0000   1.0000   1.0000   1.0000   1.0000   1.0000
     1.0000   0.9997   0.9997   0.3560   0.3560   0.3556   0.3556   0.0056
     0.0000   0.0000   0.0000   0.0000   0.0000   0.0000   0.0000   0.0000
     0.0000   0.0000   0.0000   0.0000   0.0000   0.0000   0.0000   0.0000
     0.0000   0.0000   0.0000   0.0000   0.0000   0.0000   0.0000   0.0000
     0.0000   0.0000   0.0000   0.0000   0.0000   0.0000   0.0000   0.0000
     0.0000   0.0000   0.0000   0.0000   0.0000   0.0000   0.0000   0.0000
     0.0000   0.0000   0.0000   0.0000   0.0000   0.0000   0.0000   0.0000
     0.0000   0.0000   0.0000   0.0000   0.0000   0.0000   0.0000   0.0000
     0.0000   0.0000   0.0000   0.0000   0.0000   0.0000   0.0000   0.0000
     0.0000   0.0000   0.0000   0.0000   0.0000   0.0000   0.0000   0.0000
     0.0000   0.0000   0.0000   0.0000   0.0000

          k = 0.0000 0.2500 0.0000 ( 25956 PWs)   bands (ev):

   -43.8949 -43.8949 -43.8888 -43.8888 -43.8766 -43.8754 -43.8689 -43.8344
   -43.8344 -43.8296 -43.8263 -43.8263 -43.8185 -43.8175 -43.8044 -43.8024
   -43.7957 -43.7944 -43.7944 -43.7933 -43.7912 -43.7912 -43.7785 -43.7704
   -43.7704 -43.7639 -43.7567 -43.7567 -43.7394 -43.7362 -43.7333 -43.7315
   -43.7095 -43.6952 -43.6928 -43.6908 -43.6908 -43.6868 -43.6868 -43.6865
   -43.6865 -43.6799 -43.6797 -43.6767 -43.6765 -43.6740 -43.6734 -43.6633
   -43.6627 -43.6627 -43.6612 -43.6600 -43.6558 -43.6539 -43.6539 -43.6536
   -43.6531 -43.6390 -43.6364 -43.6356 -43.6356 -43.6353 -43.6138 -43.6138
   -43.6130 -43.6130 -43.6119 -43.6111 -43.6097 -43.6097 -43.6096 -43.6067
   -43.6067 -43.6039 -43.5997 -43.5997 -43.5978 -43.5978 -43.5925 -43.5898
   -43.5816 -43.5769 -43.5769 -43.5759 -43.5742 -43.5742 -43.5715 -43.5516
   -43.5397 -43.5330 -43.5330 -43.5322 -43.5322 -43.5310 -43.5305 -43.5256
   -43.1603 -43.1603 -43.1601 -43.1601 -43.1477 -43.1477 -43.1475 -43.1475
   -43.1031 -43.1031 -43.1030 -43.1030 -43.0979 -43.0978 -43.0974 -43.0972
   -43.0268 -43.0267 -43.0257 -43.0256 -43.0207 -43.0207 -43.0205 -43.0205
   -42.9748 -42.9746 -42.9745 -42.9743 -42.9614 -42.9614 -42.9612 -42.9612
   -42.8681 -42.8679 -42.8594 -42.8593 -42.8542 -42.8542 -42.8540 -42.8540
   -42.8538 -42.8538 -42.8536 -42.8536 -42.8495 -42.8493 -42.8431 -42.8429
    -0.2689   0.6845   1.1706   1.9056   1.9786   2.2286   2.2286   2.3402
     2.3402   2.3466   2.3466   2.5585   2.6533   2.7057   2.7411   2.7411
     2.7716   2.8357   2.8357   2.9880   3.0222   3.0353   3.0353   3.0383
     3.0527   3.1509   3.1709   3.2532   3.2532   3.3245   3.3910   3.4602
     3.4895   3.5337   3.5569   3.6255   3.6781   3.6950   3.7194   3.7232
     3.7232   3.7780   3.7780   3.9497   3.9841   3.9841   3.9992   3.9992
     4.0011   4.0291   4.0615   4.0977   4.1503   4.2052   4.2175   4.2175
     4.2316   4.2507   4.2507   4.2560   4.2795   4.3328   4.4691   4.5396
     4.5396   4.6272   4.6336   4.6388   4.6814   4.6814   4.6949   4.7065
     4.7402   4.7402   4.8252   4.8397   4.8397   4.8742   5.0136   5.0136
     5.0287   5.0287   5.1192   5.1370   5.1370   5.1498   5.1656   5.1681
     5.1681   5.1926   5.2426   5.2426   5.3209   5.3209   5.3891   5.3891
     5.4129   5.4129   5.4224   5.4703   5.4707   5.4707   5.4845   5.5034
     5.5034   5.5799   5.6340   5.6340   5.6652   5.6889   5.7496   5.7496
     5.7544   5.7740   5.7951   5.7951   5.8791   5.8791   5.9015   5.9573
     5.9671   5.9804   5.9804   6.0003   6.1071   6.1371   6.1631   6.1631
     6.1646   6.1735   6.1854   6.1854   6.3297   6.3784   6.3784   6.3913
     6.4673   6.4673   6.5606   6.5606   6.5630   6.5714   6.5714   6.5777
     6.5777   6.6295   6.6295   6.6544   6.7611   6.8680   6.8680   6.8791
     6.9046   6.9046   6.9258   6.9269   6.9269   6.9541   6.9793   6.9793
     7.0487   7.0659   7.0706   7.0936   7.0936   7.1098   7.1243   7.1521
     7.2308   7.2788   7.3066   7.3247   7.3262   7.3524   7.3697   7.5073
     7.5073   7.5189   7.5458   7.5585   7.5804   7.6332   7.6332   7.6415
     7.6668   7.6668   7.7166   7.7166   7.7304   7.7887   7.8101   7.8487
     7.8556   7.8586   7.9040   7.9189   7.9189   7.9328   7.9328   7.9383
     7.9544   7.9777   8.0432   8.0846   8.0846   8.1049   8.1514   8.2159
     8.2159   8.2319   8.2379   8.2379   8.2835   8.3084   8.3154   8.3154
     8.4988   8.5573   8.6009   8.6020   8.6020   8.6528   8.6627   8.6627
     8.6773   8.6928   8.6928   8.6977   8.7564   8.7717   8.7789   8.7885
     8.7971   8.7971   8.7976   8.8080   8.8080   8.8486   8.8486   8.8513
     8.9222   8.9321   9.0694   9.0694   9.1262   9.1598   9.2124   9.2146
     9.2374   9.2675   9.2815   9.4177   9.4389   9.4389   9.5966   9.6183
     9.6183   9.6437   9.6437   9.6666   9.8627   9.8627   9.8893  10.4970
    10.4970  10.6497  10.7014  10.7687  10.7876  10.7876  11.2364  11.7873
    11.7895  11.7895  11.8353  11.8353  11.8354  12.2955  12.2955  12.4378
    12.6551  12.9662  13.1432  13.3306  13.3306  13.4698  13.4698  13.9122
    14.0441  14.0441  14.2538  14.5018  14.5357  14.7138  14.8908  15.2032
    15.2558  15.2558  15.4024  15.4024  15.6317  15.6317  15.6596  15.9175
    15.9176  15.9276  15.9278  16.0314  16.1224  16.2407  16.2407  16.5327
    16.9243  17.1072  17.1092  17.3004  17.3008

     occupation numbers 
     1.0000   1.0000   1.0000   1.0000   1.0000   1.0000   1.0000   1.0000
     1.0000   1.0000   1.0000   1.0000   1.0000   1.0000   1.0000   1.0000
     1.0000   1.0000   1.0000   1.0000   1.0000   1.0000   1.0000   1.0000
     1.0000   1.0000   1.0000   1.0000   1.0000   1.0000   1.0000   1.0000
     1.0000   1.0000   1.0000   1.0000   1.0000   1.0000   1.0000   1.0000
     1.0000   1.0000   1.0000   1.0000   1.0000   1.0000   1.0000   1.0000
     1.0000   1.0000   1.0000   1.0000   1.0000   1.0000   1.0000   1.0000
     1.0000   1.0000   1.0000   1.0000   1.0000   1.0000   1.0000   1.0000
     1.0000   1.0000   1.0000   1.0000   1.0000   1.0000   1.0000   1.0000
     1.0000   1.0000   1.0000   1.0000   1.0000   1.0000   1.0000   1.0000
     1.0000   1.0000   1.0000   1.0000   1.0000   1.0000   1.0000   1.0000
     1.0000   1.0000   1.0000   1.0000   1.0000   1.0000   1.0000   1.0000
     1.0000   1.0000   1.0000   1.0000   1.0000   1.0000   1.0000   1.0000
     1.0000   1.0000   1.0000   1.0000   1.0000   1.0000   1.0000   1.0000
     1.0000   1.0000   1.0000   1.0000   1.0000   1.0000   1.0000   1.0000
     1.0000   1.0000   1.0000   1.0000   1.0000   1.0000   1.0000   1.0000
     1.0000   1.0000   1.0000   1.0000   1.0000   1.0000   1.0000   1.0000
     1.0000   1.0000   1.0000   1.0000   1.0000   1.0000   1.0000   1.0000
     1.0000   1.0000   1.0000   1.0000   1.0000   1.0000   1.0000   1.0000
     1.0000   1.0000   1.0000   1.0000   1.0000   1.0000   1.0000   1.0000
     1.0000   1.0000   1.0000   1.0000   1.0000   1.0000   1.0000   1.0000
     1.0000   1.0000   1.0000   1.0000   1.0000   1.0000   1.0000   1.0000
     1.0000   1.0000   1.0000   1.0000   1.0000   1.0000   1.0000   1.0000
     1.0000   1.0000   1.0000   1.0000   1.0000   1.0000   1.0000   1.0000
     1.0000   1.0000   1.0000   1.0000   1.0000   1.0000   1.0000   1.0000
     1.0000   1.0000   1.0000   1.0000   1.0000   1.0000   1.0000   1.0000
     1.0000   1.0000   1.0000   1.0000   1.0000   1.0000   1.0000   1.0000
     1.0000   1.0000   1.0000   1.0000   1.0000   1.0000   1.0000   1.0000
     1.0000   1.0000   1.0000   1.0000   1.0000   1.0000   1.0000   1.0000
     1.0000   1.0000   1.0000   1.0000   1.0000   1.0000   1.0000   1.0000
     1.0000   1.0000   1.0000   1.0000   1.0000   1.0000   1.0000   1.0000
     1.0000   1.0000   1.0000   1.0000   1.0000   1.0000   1.0000   1.0000
     1.0000   1.0000   1.0000   1.0000   1.0000   1.0000   1.0000   1.0000
     1.0000   1.0000   1.0000   1.0000   1.0000   1.0000   1.0000   1.0000
     1.0000   1.0000   1.0000   1.0000   1.0000   1.0000   1.0000   1.0000
     1.0000   1.0000   1.0000   1.0000   1.0000   1.0000   1.0000   1.0000
     1.0000   1.0000   1.0000   1.0000   1.0000   1.0000   1.0000   1.0000
     1.0000   1.0000   1.0000   1.0000   1.0000   1.0000   1.0000   1.0000
     1.0000   1.0000   1.0000   1.0000   1.0000   1.0000   1.0000   1.0000
     1.0000   1.0000   1.0000   1.0000   1.0000   1.0000   1.0000   1.0000
     1.0000   1.0000   1.0000   1.0000   1.0000   1.0000   1.0000   1.0000
     1.0000   1.0000   1.0000   1.0000   1.0000   1.0000   1.0000   1.0000
     1.0000   1.0000   1.0000   1.0000   1.0000   1.0000   1.0000   1.0000
     1.0000   1.0000   1.0000   1.0000   1.0000   1.0000   1.0000   1.0000
     1.0000   1.0000   1.0000   1.0000   1.0000   1.0000   1.0000   1.0000
     1.0000   1.0000   1.0000   1.0000   1.0000   1.0000   1.0000   1.0000
     1.0000   1.0000   1.0000   1.0000   1.0000   1.0000   1.0000   1.0000
     1.0000   1.0000   1.0000   1.0000   1.0000   0.9997   0.9997   0.9995
     0.8005   0.6909   0.0000   0.0000   0.0000   0.0000   0.0000   0.0000
     0.0000   0.0000   0.0000   0.0000   0.0000   0.0000   0.0000   0.0000
     0.0000   0.0000   0.0000   0.0000   0.0000   0.0000   0.0000   0.0000
     0.0000   0.0000   0.0000   0.0000   0.0000   0.0000   0.0000   0.0000
     0.0000   0.0000   0.0000   0.0000   0.0000   0.0000   0.0000   0.0000
     0.0000   0.0000   0.0000   0.0000   0.0000   0.0000   0.0000   0.0000
     0.0000   0.0000   0.0000   0.0000   0.0000   0.0000   0.0000   0.0000
     0.0000   0.0000   0.0000   0.0000   0.0000   0.0000   0.0000   0.0000
     0.0000   0.0000   0.0000   0.0000   0.0000   0.0000   0.0000   0.0000
     0.0000   0.0000   0.0000   0.0000   0.0000

          k = 0.0000-0.5000 0.0000 ( 25906 PWs)   bands (ev):

   -43.8712 -43.8712 -43.8712 -43.8712 -43.8607 -43.8607 -43.8607 -43.8607
   -43.8529 -43.8529 -43.8527 -43.8526 -43.8497 -43.8496 -43.8045 -43.8045
   -43.7870 -43.7870 -43.7818 -43.7817 -43.7817 -43.7817 -43.7716 -43.7716
   -43.7701 -43.7701 -43.7701 -43.7701 -43.7499 -43.7499 -43.7047 -43.7047
   -43.6994 -43.6994 -43.6974 -43.6974 -43.6931 -43.6931 -43.6930 -43.6930
   -43.6896 -43.6896 -43.6809 -43.6809 -43.6712 -43.6712 -43.6712 -43.6712
   -43.6620 -43.6620 -43.6535 -43.6535 -43.6522 -43.6522 -43.6396 -43.6396
   -43.6310 -43.6310 -43.6302 -43.6302 -43.6292 -43.6292 -43.6292 -43.6292
   -43.6282 -43.6282 -43.6282 -43.6282 -43.6111 -43.6111 -43.6036 -43.6036
   -43.6035 -43.6035 -43.6003 -43.6003 -43.6003 -43.6003 -43.5818 -43.5818
   -43.5624 -43.5624 -43.5597 -43.5597 -43.5554 -43.5554 -43.5554 -43.5554
   -43.5509 -43.5508 -43.5508 -43.5508 -43.5441 -43.5440 -43.5349 -43.5349
   -43.1375 -43.1375 -43.1375 -43.1375 -43.1374 -43.1374 -43.1373 -43.1373
   -43.1277 -43.1277 -43.1276 -43.1276 -43.1275 -43.1275 -43.1274 -43.1273
   -42.9958 -42.9958 -42.9957 -42.9956 -42.9950 -42.9950 -42.9949 -42.9948
   -42.9853 -42.9853 -42.9852 -42.9852 -42.9851 -42.9851 -42.9850 -42.9850
   -42.8644 -42.8644 -42.8643 -42.8642 -42.8540 -42.8540 -42.8540 -42.8539
   -42.8539 -42.8538 -42.8538 -42.8537 -42.8456 -42.8456 -42.8455 -42.8454
     0.3013   0.3014   1.2005   1.2005   2.3548   2.3548   2.3920   2.3920
     2.3921   2.3921   2.5244   2.5244   2.5244   2.5244   2.8133   2.8133
     2.8779   2.8779   2.8779   2.8779   2.9858   2.9859   3.0573   3.0573
     3.2749   3.2750   3.2760   3.2761   3.2992   3.2992   3.2992   3.2992
     3.3753   3.3754   3.5458   3.5458   3.5832   3.5833   3.6166   3.6167
     3.7646   3.7646   3.7854   3.7854   3.8066   3.8066   3.8928   3.8928
     3.9068   3.9068   3.9068   3.9068   4.1760   4.1760   4.1760   4.1760
     4.2528   4.2528   4.3466   4.3466   4.3781   4.3781   4.3782   4.3782
     4.5753   4.5753   4.7174   4.7174   4.7314   4.7314   4.7535   4.7535
     4.7535   4.7535   4.7677   4.7677   4.8117   4.8117   4.8118   4.8118
     4.9568   4.9568   5.1703   5.1703   5.1703   5.1703   5.2599   5.2599
     5.2600   5.2600   5.3930   5.3930   5.3931   5.3931   5.4873   5.4874
     5.5464   5.5464   5.5464   5.5464   5.5501   5.5501   5.7336   5.7336
     5.7336   5.7336   5.7501   5.7501   5.7669   5.7669   5.7680   5.7680
     5.7688   5.7688   5.8020   5.8020   5.8020   5.8020   5.8685   5.8685
     5.9329   5.9329   5.9329   5.9329   6.0627   6.0627   6.0627   6.0627
     6.0974   6.0974   6.1302   6.1302   6.2172   6.2172   6.2172   6.2172
     6.3898   6.3898   6.3898   6.3898   6.4890   6.4891   6.5357   6.5357
     6.5357   6.5357   6.6279   6.6279   6.8080   6.8080   6.8937   6.8937
     6.8937   6.8937   6.8994   6.8994   6.9471   6.9471   6.9848   6.9848
     6.9848   6.9848   7.0509   7.0510   7.1841   7.1841   7.1841   7.1841
     7.2106   7.2106   7.3041   7.3041   7.4146   7.4147   7.5310   7.5310
     7.6342   7.6342   7.6358   7.6358   7.6358   7.6358   7.7304   7.7305
     7.8424   7.8424   7.8560   7.8560   7.9888   7.9888   7.9889   7.9889
     8.0132   8.0132   8.0349   8.0349   8.0370   8.0370   8.0624   8.0624
     8.0624   8.0624   8.1199   8.1199   8.1473   8.1473   8.3063   8.3063
     8.4143   8.4143   8.4503   8.4503   8.4991   8.4992   8.5116   8.5116
     8.5116   8.5116   8.5616   8.5616   8.5884   8.5884   8.6166   8.6166
     8.6479   8.6480   8.6480   8.6480   8.6543   8.6543   8.6543   8.6543
     8.7320   8.7320   8.7320   8.7320   8.7388   8.7388   8.7404   8.7404
     8.9643   8.9643   8.9643   8.9643   9.0190   9.0191   9.0295   9.0295
     9.0295   9.0295   9.1185   9.1185   9.1797   9.1797   9.2628   9.2628
     9.2910   9.2911   9.5466   9.5466   9.5466   9.5466  10.2111  10.2111
    10.7039  10.7039  10.7406  10.7406  10.7406  10.7406  11.8465  11.8465
    12.0695  12.0695  12.4698  12.4698  12.4698  12.4699  13.1649  13.1649
    13.1925  13.1925  13.2869  13.2869  13.2869  13.2869  14.1715  14.1715
    14.1715  14.1715  14.2370  14.2371  14.2909  14.2909  14.3182  14.3182
    14.3182  14.3182  15.0450  15.0450  15.5651  15.5651  15.5697  15.5697
    15.6117  15.6117  15.6755  15.6755  15.6755  15.6755  16.2931  16.2931
    16.2932  16.2932  16.9195  16.9196  16.9197

     occupation numbers 
     1.0000   1.0000   1.0000   1.0000   1.0000   1.0000   1.0000   1.0000
     1.0000   1.0000   1.0000   1.0000   1.0000   1.0000   1.0000   1.0000
     1.0000   1.0000   1.0000   1.0000   1.0000   1.0000   1.0000   1.0000
     1.0000   1.0000   1.0000   1.0000   1.0000   1.0000   1.0000   1.0000
     1.0000   1.0000   1.0000   1.0000   1.0000   1.0000   1.0000   1.0000
     1.0000   1.0000   1.0000   1.0000   1.0000   1.0000   1.0000   1.0000
     1.0000   1.0000   1.0000   1.0000   1.0000   1.0000   1.0000   1.0000
     1.0000   1.0000   1.0000   1.0000   1.0000   1.0000   1.0000   1.0000
     1.0000   1.0000   1.0000   1.0000   1.0000   1.0000   1.0000   1.0000
     1.0000   1.0000   1.0000   1.0000   1.0000   1.0000   1.0000   1.0000
     1.0000   1.0000   1.0000   1.0000   1.0000   1.0000   1.0000   1.0000
     1.0000   1.0000   1.0000   1.0000   1.0000   1.0000   1.0000   1.0000
     1.0000   1.0000   1.0000   1.0000   1.0000   1.0000   1.0000   1.0000
     1.0000   1.0000   1.0000   1.0000   1.0000   1.0000   1.0000   1.0000
     1.0000   1.0000   1.0000   1.0000   1.0000   1.0000   1.0000   1.0000
     1.0000   1.0000   1.0000   1.0000   1.0000   1.0000   1.0000   1.0000
     1.0000   1.0000   1.0000   1.0000   1.0000   1.0000   1.0000   1.0000
     1.0000   1.0000   1.0000   1.0000   1.0000   1.0000   1.0000   1.0000
     1.0000   1.0000   1.0000   1.0000   1.0000   1.0000   1.0000   1.0000
     1.0000   1.0000   1.0000   1.0000   1.0000   1.0000   1.0000   1.0000
     1.0000   1.0000   1.0000   1.0000   1.0000   1.0000   1.0000   1.0000
     1.0000   1.0000   1.0000   1.0000   1.0000   1.0000   1.0000   1.0000
     1.0000   1.0000   1.0000   1.0000   1.0000   1.0000   1.0000   1.0000
     1.0000   1.0000   1.0000   1.0000   1.0000   1.0000   1.0000   1.0000
     1.0000   1.0000   1.0000   1.0000   1.0000   1.0000   1.0000   1.0000
     1.0000   1.0000   1.0000   1.0000   1.0000   1.0000   1.0000   1.0000
     1.0000   1.0000   1.0000   1.0000   1.0000   1.0000   1.0000   1.0000
     1.0000   1.0000   1.0000   1.0000   1.0000   1.0000   1.0000   1.0000
     1.0000   1.0000   1.0000   1.0000   1.0000   1.0000   1.0000   1.0000
     1.0000   1.0000   1.0000   1.0000   1.0000   1.0000   1.0000   1.0000
     1.0000   1.0000   1.0000   1.0000   1.0000   1.0000   1.0000   1.0000
     1.0000   1.0000   1.0000   1.0000   1.0000   1.0000   1.0000   1.0000
     1.0000   1.0000   1.0000   1.0000   1.0000   1.0000   1.0000   1.0000
     1.0000   1.0000   1.0000   1.0000   1.0000   1.0000   1.0000   1.0000
     1.0000   1.0000   1.0000   1.0000   1.0000   1.0000   1.0000   1.0000
     1.0000   1.0000   1.0000   1.0000   1.0000   1.0000   1.0000   1.0000
     1.0000   1.0000   1.0000   1.0000   1.0000   1.0000   1.0000   1.0000
     1.0000   1.0000   1.0000   1.0000   1.0000   1.0000   1.0000   1.0000
     1.0000   1.0000   1.0000   1.0000   1.0000   1.0000   1.0000   1.0000
     1.0000   1.0000   1.0000   1.0000   1.0000   1.0000   1.0000   1.0000
     1.0000   1.0000   1.0000   1.0000   1.0000   1.0000   1.0000   1.0000
     1.0000   1.0000   1.0000   1.0000   1.0000   1.0000   1.0000   1.0000
     1.0000   1.0000   1.0000   1.0000   1.0000   1.0000   1.0000   1.0000
     1.0000   1.0000   1.0000   1.0000   1.0000   1.0000   1.0000   1.0000
     1.0000   1.0000   1.0000   1.0000   1.0000   1.0000   1.0000   1.0000
     1.0000   1.0000   1.0000   1.0000   1.0000   1.0000   1.0000   1.0000
     1.0000   1.0000   1.0000   1.0000   1.0000   1.0000   1.0000   1.0000
     1.0000   1.0000   1.0000   1.0000   1.0000   1.0000   1.0000   1.0000
     0.2688   0.2688   0.2687   0.2687   0.0060   0.0060   0.0020   0.0020
     0.0020   0.0020   0.0000   0.0000   0.0000   0.0000   0.0000   0.0000
     0.0000   0.0000   0.0000   0.0000   0.0000   0.0000   0.0000   0.0000
     0.0000   0.0000   0.0000   0.0000   0.0000   0.0000   0.0000   0.0000
     0.0000   0.0000   0.0000   0.0000   0.0000   0.0000   0.0000   0.0000
     0.0000   0.0000   0.0000   0.0000   0.0000   0.0000   0.0000   0.0000
     0.0000   0.0000   0.0000   0.0000   0.0000   0.0000   0.0000   0.0000
     0.0000   0.0000   0.0000   0.0000   0.0000   0.0000   0.0000   0.0000
     0.0000   0.0000   0.0000   0.0000   0.0000   0.0000   0.0000   0.0000
     0.0000   0.0000   0.0000   0.0000   0.0000

          k = 0.2500 0.2500 0.0000 ( 25989 PWs)   bands (ev):

   -43.8910 -43.8910 -43.8816 -43.8713 -43.8709 -43.8709 -43.8637 -43.8478
   -43.8478 -43.8388 -43.8388 -43.8321 -43.8321 -43.8182 -43.8182 -43.7993
   -43.7992 -43.7971 -43.7971 -43.7861 -43.7858 -43.7857 -43.7850 -43.7757
   -43.7757 -43.7705 -43.7560 -43.7560 -43.7236 -43.7236 -43.7159 -43.7159
   -43.7152 -43.7152 -43.6983 -43.6983 -43.6921 -43.6901 -43.6857 -43.6857
   -43.6782 -43.6744 -43.6744 -43.6727 -43.6727 -43.6687 -43.6686 -43.6647
   -43.6647 -43.6590 -43.6582 -43.6500 -43.6500 -43.6489 -43.6488 -43.6466
   -43.6466 -43.6377 -43.6377 -43.6304 -43.6304 -43.6287 -43.6287 -43.6265
   -43.6265 -43.6216 -43.6215 -43.6207 -43.6207 -43.6173 -43.6127 -43.6127
   -43.6052 -43.5988 -43.5982 -43.5981 -43.5980 -43.5980 -43.5971 -43.5891
   -43.5830 -43.5830 -43.5789 -43.5789 -43.5537 -43.5536 -43.5536 -43.5499
   -43.5499 -43.5486 -43.5486 -43.5400 -43.5311 -43.5256 -43.5245 -43.5198
   -43.1659 -43.1657 -43.1565 -43.1564 -43.1399 -43.1397 -43.1324 -43.1324
   -43.1322 -43.1322 -43.1258 -43.1256 -43.0674 -43.0674 -43.0673 -43.0672
   -43.0571 -43.0571 -43.0569 -43.0569 -42.9976 -42.9974 -42.9903 -42.9903
   -42.9902 -42.9902 -42.9831 -42.9829 -42.9652 -42.9650 -42.9551 -42.9550
   -42.8669 -42.8667 -42.8590 -42.8590 -42.8588 -42.8588 -42.8558 -42.8556
   -42.8520 -42.8518 -42.8497 -42.8497 -42.8496 -42.8495 -42.8439 -42.8438
    -0.0798   0.8480   1.2987   1.2987   2.0011   2.0011   2.0301   2.0773
     2.1722   2.5488   2.5963   2.5963   2.6635   2.7815   2.7816   2.8215
     2.8216   2.8613   2.8613   2.9993   3.1019   3.1019   3.1659   3.1659
     3.1683   3.2474   3.2556   3.2556   3.2573   3.4088   3.4089   3.4891
     3.4891   3.5060   3.5060   3.5311   3.5311   3.6212   3.6787   3.7200
     3.7200   3.8042   3.8042   3.8112   3.8112   3.8142   3.8142   3.8362
     3.9630   3.9630   3.9790   3.9790   4.0321   4.0321   4.1295   4.1295
     4.1656   4.3794   4.3795   4.3796   4.3796   4.5414   4.5414   4.5837
     4.5837   4.6294   4.6294   4.6478   4.6478   4.6933   4.7227   4.7731
     4.7731   4.8587   4.8587   4.9328   4.9328   4.9512   4.9512   4.9599
     5.0352   5.0352   5.0794   5.0794   5.1026   5.1140   5.1140   5.1588
     5.1886   5.1886   5.2356   5.2356   5.3591   5.3591   5.3755   5.4380
     5.4380   5.5278   5.5278   5.5321   5.5398   5.5398   5.5684   5.6065
     5.6520   5.6697   5.6775   5.6775   5.6805   5.6926   5.7498   5.7498
     5.8085   5.8085   5.8192   5.8860   5.9101   5.9368   5.9368   5.9505
     5.9505   5.9913   5.9913   5.9942   5.9942   5.9998   6.0545   6.0545
     6.1113   6.1113   6.1286   6.1613   6.1613   6.2173   6.2332   6.3638
     6.3786   6.4941   6.4941   6.4942   6.4942   6.5251   6.6022   6.6022
     6.6171   6.6171   6.7403   6.7646   6.7646   6.7995   6.7995   6.8383
     6.8383   6.8589   6.9404   6.9404   6.9497   6.9497   6.9550   6.9550
     6.9912   6.9912   6.9998   7.1224   7.1224   7.1289   7.1289   7.1295
     7.1475   7.2318   7.2318   7.3120   7.3120   7.3430   7.4158   7.4158
     7.4238   7.4456   7.4653   7.4653   7.4791   7.4991   7.4991   7.5090
     7.6190   7.6200   7.6200   7.6932   7.8300   7.8311   7.8311   7.8921
     7.8921   7.9514   7.9514   7.9647   7.9647   7.9649   7.9649   8.0914
     8.0915   8.1239   8.1294   8.1594   8.1871   8.1872   8.2076   8.2076
     8.2190   8.2190   8.2919   8.3133   8.3133   8.3945   8.3946   8.4161
     8.4161   8.4278   8.4464   8.5116   8.5116   8.5480   8.5480   8.5747
     8.6978   8.6978   8.7268   8.7454   8.8077   8.8240   8.8240   8.8298
     8.8424   8.8424   8.8500   8.8500   8.8854   8.8854   8.8880   8.8880
     8.9602   8.9780   8.9996   8.9997   9.0342   9.0646   9.0646   9.1073
     9.1097   9.1097   9.1428   9.1428   9.2912   9.4038   9.4039   9.4393
     9.5767   9.5767   9.8295   9.8414   9.8414  10.7310  10.7310  10.8261
    10.8262  11.0888  11.0888  11.1321  11.1713  11.1714  11.3045  11.3045
    11.6571  11.6572  11.8563  11.9421  11.9421  12.3695  12.8292  12.9803
    12.9803  13.1374  13.1374  13.3489  13.3489  13.4133  13.4134  13.7888
    13.8768  14.1290  14.1290  14.2560  14.2560  14.7028  14.7719  14.7719
    15.2678  15.2678  15.2703  15.2703  15.3282  15.3717  15.3717  15.5603
    15.6003  15.6003  15.6353  15.6353  16.0815  16.0939  16.0939  16.3464
    16.3464  16.4285  16.4285  16.6935  16.7847

     occupation numbers 
     1.0000   1.0000   1.0000   1.0000   1.0000   1.0000   1.0000   1.0000
     1.0000   1.0000   1.0000   1.0000   1.0000   1.0000   1.0000   1.0000
     1.0000   1.0000   1.0000   1.0000   1.0000   1.0000   1.0000   1.0000
     1.0000   1.0000   1.0000   1.0000   1.0000   1.0000   1.0000   1.0000
     1.0000   1.0000   1.0000   1.0000   1.0000   1.0000   1.0000   1.0000
     1.0000   1.0000   1.0000   1.0000   1.0000   1.0000   1.0000   1.0000
     1.0000   1.0000   1.0000   1.0000   1.0000   1.0000   1.0000   1.0000
     1.0000   1.0000   1.0000   1.0000   1.0000   1.0000   1.0000   1.0000
     1.0000   1.0000   1.0000   1.0000   1.0000   1.0000   1.0000   1.0000
     1.0000   1.0000   1.0000   1.0000   1.0000   1.0000   1.0000   1.0000
     1.0000   1.0000   1.0000   1.0000   1.0000   1.0000   1.0000   1.0000
     1.0000   1.0000   1.0000   1.0000   1.0000   1.0000   1.0000   1.0000
     1.0000   1.0000   1.0000   1.0000   1.0000   1.0000   1.0000   1.0000
     1.0000   1.0000   1.0000   1.0000   1.0000   1.0000   1.0000   1.0000
     1.0000   1.0000   1.0000   1.0000   1.0000   1.0000   1.0000   1.0000
     1.0000   1.0000   1.0000   1.0000   1.0000   1.0000   1.0000   1.0000
     1.0000   1.0000   1.0000   1.0000   1.0000   1.0000   1.0000   1.0000
     1.0000   1.0000   1.0000   1.0000   1.0000   1.0000   1.0000   1.0000
     1.0000   1.0000   1.0000   1.0000   1.0000   1.0000   1.0000   1.0000
     1.0000   1.0000   1.0000   1.0000   1.0000   1.0000   1.0000   1.0000
     1.0000   1.0000   1.0000   1.0000   1.0000   1.0000   1.0000   1.0000
     1.0000   1.0000   1.0000   1.0000   1.0000   1.0000   1.0000   1.0000
     1.0000   1.0000   1.0000   1.0000   1.0000   1.0000   1.0000   1.0000
     1.0000   1.0000   1.0000   1.0000   1.0000   1.0000   1.0000   1.0000
     1.0000   1.0000   1.0000   1.0000   1.0000   1.0000   1.0000   1.0000
     1.0000   1.0000   1.0000   1.0000   1.0000   1.0000   1.0000   1.0000
     1.0000   1.0000   1.0000   1.0000   1.0000   1.0000   1.0000   1.0000
     1.0000   1.0000   1.0000   1.0000   1.0000   1.0000   1.0000   1.0000
     1.0000   1.0000   1.0000   1.0000   1.0000   1.0000   1.0000   1.0000
     1.0000   1.0000   1.0000   1.0000   1.0000   1.0000   1.0000   1.0000
     1.0000   1.0000   1.0000   1.0000   1.0000   1.0000   1.0000   1.0000
     1.0000   1.0000   1.0000   1.0000   1.0000   1.0000   1.0000   1.0000
     1.0000   1.0000   1.0000   1.0000   1.0000   1.0000   1.0000   1.0000
     1.0000   1.0000   1.0000   1.0000   1.0000   1.0000   1.0000   1.0000
     1.0000   1.0000   1.0000   1.0000   1.0000   1.0000   1.0000   1.0000
     1.0000   1.0000   1.0000   1.0000   1.0000   1.0000   1.0000   1.0000
     1.0000   1.0000   1.0000   1.0000   1.0000   1.0000   1.0000   1.0000
     1.0000   1.0000   1.0000   1.0000   1.0000   1.0000   1.0000   1.0000
     1.0000   1.0000   1.0000   1.0000   1.0000   1.0000   1.0000   1.0000
     1.0000   1.0000   1.0000   1.0000   1.0000   1.0000   1.0000   1.0000
     1.0000   1.0000   1.0000   1.0000   1.0000   1.0000   1.0000   1.0000
     1.0000   1.0000   1.0000   1.0000   1.0000   1.0000   1.0000   1.0000
     1.0000   1.0000   1.0000   1.0000   1.0000   1.0000   1.0000   1.0000
     1.0000   1.0000   1.0000   1.0000   1.0000   1.0000   1.0000   1.0000
     1.0000   1.0000   1.0000   1.0000   1.0000   1.0000   1.0000   1.0000
     1.0000   1.0000   1.0000   1.0000   1.0000   1.0000   1.0000   1.0000
     1.0000   1.0000   1.0000   1.0000   1.0000   1.0000   1.0000   1.0000
     0.9998   0.9998   0.9996   0.9996   0.9830   0.9830   0.9788   0.9787
     0.3177   0.1376   0.0329   0.0328   0.0012   0.0000   0.0000   0.0000
     0.0000   0.0000   0.0000   0.0000   0.0000   0.0000   0.0000   0.0000
     0.0000   0.0000   0.0000   0.0000   0.0000   0.0000   0.0000   0.0000
     0.0000   0.0000   0.0000   0.0000   0.0000   0.0000   0.0000   0.0000
     0.0000   0.0000   0.0000   0.0000   0.0000   0.0000   0.0000   0.0000
     0.0000   0.0000   0.0000   0.0000   0.0000   0.0000   0.0000   0.0000
     0.0000   0.0000   0.0000   0.0000   0.0000   0.0000   0.0000   0.0000
     0.0000   0.0000   0.0000   0.0000   0.0000   0.0000   0.0000   0.0000
     0.0000   0.0000   0.0000   0.0000   0.0000   0.0000   0.0000   0.0000
     0.0000   0.0000   0.0000   0.0000   0.0000

          k = 0.2500-0.5000 0.0000 ( 26010 PWs)   bands (ev):

   -43.8765 -43.8765 -43.8704 -43.8704 -43.8601 -43.8600 -43.8563 -43.8562
   -43.8538 -43.8538 -43.8495 -43.8494 -43.8467 -43.8466 -43.8010 -43.8010
   -43.8004 -43.8004 -43.7900 -43.7900 -43.7899 -43.7899 -43.7895 -43.7894
   -43.7773 -43.7773 -43.7401 -43.7401 -43.7256 -43.7255 -43.7194 -43.7194
   -43.7014 -43.7014 -43.6955 -43.6955 -43.6909 -43.6909 -43.6788 -43.6788
   -43.6770 -43.6770 -43.6741 -43.6741 -43.6723 -43.6723 -43.6634 -43.6633
   -43.6591 -43.6591 -43.6508 -43.6508 -43.6485 -43.6484 -43.6471 -43.6470
   -43.6407 -43.6406 -43.6371 -43.6371 -43.6305 -43.6305 -43.6288 -43.6288
   -43.6252 -43.6252 -43.6252 -43.6251 -43.6237 -43.6236 -43.6165 -43.6164
   -43.6104 -43.6104 -43.5906 -43.5906 -43.5882 -43.5881 -43.5863 -43.5863
   -43.5847 -43.5847 -43.5822 -43.5822 -43.5789 -43.5789 -43.5549 -43.5549
   -43.5339 -43.5339 -43.5333 -43.5333 -43.5307 -43.5307 -43.5287 -43.5286
   -43.1562 -43.1562 -43.1561 -43.1561 -43.1510 -43.1510 -43.1509 -43.1509
   -43.1073 -43.1073 -43.1072 -43.1072 -43.0940 -43.0940 -43.0938 -43.0938
   -43.0303 -43.0303 -43.0301 -43.0301 -43.0168 -43.0168 -43.0166 -43.0166
   -42.9708 -42.9708 -42.9706 -42.9706 -42.9653 -42.9653 -42.9651 -42.9651
   -42.8635 -42.8635 -42.8634 -42.8633 -42.8576 -42.8576 -42.8575 -42.8574
   -42.8506 -42.8506 -42.8505 -42.8504 -42.8462 -42.8462 -42.8461 -42.8460
     0.4673   0.4673   1.3142   1.3142   1.6469   1.6470   2.0656   2.0656
     2.3688   2.3688   2.5915   2.5915   2.8949   2.8949   2.9273   2.9273
     2.9333   2.9333   2.9666   2.9666   3.1243   3.1243   3.1353   3.1353
     3.2381   3.2381   3.2631   3.2631   3.3019   3.3019   3.3829   3.3829
     3.4984   3.4984   3.5313   3.5313   3.5770   3.5770   3.7058   3.7058
     3.7435   3.7435   3.7474   3.7474   3.7494   3.7494   3.7662   3.7662
     3.8017   3.8017   3.8909   3.8909   3.9761   3.9761   4.0444   4.0444
     4.4070   4.4070   4.4207   4.4207   4.4842   4.4842   4.5479   4.5479
     4.6261   4.6261   4.6462   4.6462   4.7597   4.7597   4.7645   4.7646
     4.7962   4.7963   4.8014   4.8015   4.8046   4.8046   4.9030   4.9031
     4.9110   4.9111   5.0166   5.0166   5.2410   5.2410   5.2444   5.2444
     5.3178   5.3178   5.3263   5.3263   5.5306   5.5306   5.5426   5.5426
     5.6323   5.6323   5.6426   5.6426   5.6459   5.6459   5.6975   5.6975
     5.7282   5.7282   5.7472   5.7472   5.7546   5.7546   5.7577   5.7577
     5.7748   5.7748   5.7860   5.7860   5.8038   5.8038   5.8158   5.8158
     5.8586   5.8587   5.9313   5.9313   6.0003   6.0004   6.0529   6.0529
     6.0835   6.0835   6.1154   6.1154   6.3235   6.3235   6.3614   6.3614
     6.3759   6.3759   6.4072   6.4072   6.4236   6.4236   6.4494   6.4494
     6.5457   6.5457   6.5604   6.5605   6.6783   6.6783   6.7523   6.7523
     6.8440   6.8440   6.8958   6.8958   6.9135   6.9135   6.9338   6.9339
     7.0334   7.0334   7.0385   7.0385   7.1138   7.1138   7.1657   7.1657
     7.1877   7.1877   7.2297   7.2298   7.2698   7.2698   7.3242   7.3242
     7.5656   7.5656   7.5733   7.5733   7.5845   7.5846   7.6623   7.6623
     7.6686   7.6686   7.7070   7.7071   7.7341   7.7341   7.7574   7.7574
     7.7667   7.7667   7.8460   7.8460   7.9240   7.9240   7.9855   7.9855
     8.0297   8.0297   8.1556   8.1556   8.1701   8.1701   8.1885   8.1885
     8.2274   8.2275   8.2903   8.2903   8.3430   8.3430   8.4129   8.4129
     8.4220   8.4220   8.4377   8.4378   8.4831   8.4831   8.6826   8.6826
     8.6843   8.6843   8.8250   8.8250   8.8326   8.8326   8.8376   8.8376
     8.8657   8.8657   8.8658   8.8658   8.8821   8.8821   8.9008   8.9008
     8.9546   8.9546   8.9548   8.9548   8.9950   8.9950   9.1330   9.1330
     9.1388   9.1388   9.1757   9.1758   9.1952   9.1952   9.7310   9.7310
     9.8990   9.8990  10.0961  10.0961  10.2354  10.2354  10.3042  10.3042
    10.9847  10.9847  11.1292  11.1292  11.5201  11.5201  12.0713  12.0714
    12.0892  12.0892  12.3484  12.3484  12.4019  12.4019  12.9817  12.9817
    13.0088  13.0088  13.4789  13.4789  13.5447  13.5447  13.5672  13.5672
    13.8082  13.8082  14.0375  14.0375  14.0798  14.0798  14.1485  14.1485
    14.7925  14.7925  15.1541  15.1541  15.2180  15.2180  15.3025  15.3026
    15.4778  15.4778  15.5303  15.5303  15.6275  15.6275  15.7828  15.7828
    16.2145  16.2145  16.3586  16.3586  16.6850

     occupation numbers 
     1.0000   1.0000   1.0000   1.0000   1.0000   1.0000   1.0000   1.0000
     1.0000   1.0000   1.0000   1.0000   1.0000   1.0000   1.0000   1.0000
     1.0000   1.0000   1.0000   1.0000   1.0000   1.0000   1.0000   1.0000
     1.0000   1.0000   1.0000   1.0000   1.0000   1.0000   1.0000   1.0000
     1.0000   1.0000   1.0000   1.0000   1.0000   1.0000   1.0000   1.0000
     1.0000   1.0000   1.0000   1.0000   1.0000   1.0000   1.0000   1.0000
     1.0000   1.0000   1.0000   1.0000   1.0000   1.0000   1.0000   1.0000
     1.0000   1.0000   1.0000   1.0000   1.0000   1.0000   1.0000   1.0000
     1.0000   1.0000   1.0000   1.0000   1.0000   1.0000   1.0000   1.0000
     1.0000   1.0000   1.0000   1.0000   1.0000   1.0000   1.0000   1.0000
     1.0000   1.0000   1.0000   1.0000   1.0000   1.0000   1.0000   1.0000
     1.0000   1.0000   1.0000   1.0000   1.0000   1.0000   1.0000   1.0000
     1.0000   1.0000   1.0000   1.0000   1.0000   1.0000   1.0000   1.0000
     1.0000   1.0000   1.0000   1.0000   1.0000   1.0000   1.0000   1.0000
     1.0000   1.0000   1.0000   1.0000   1.0000   1.0000   1.0000   1.0000
     1.0000   1.0000   1.0000   1.0000   1.0000   1.0000   1.0000   1.0000
     1.0000   1.0000   1.0000   1.0000   1.0000   1.0000   1.0000   1.0000
     1.0000   1.0000   1.0000   1.0000   1.0000   1.0000   1.0000   1.0000
     1.0000   1.0000   1.0000   1.0000   1.0000   1.0000   1.0000   1.0000
     1.0000   1.0000   1.0000   1.0000   1.0000   1.0000   1.0000   1.0000
     1.0000   1.0000   1.0000   1.0000   1.0000   1.0000   1.0000   1.0000
     1.0000   1.0000   1.0000   1.0000   1.0000   1.0000   1.0000   1.0000
     1.0000   1.0000   1.0000   1.0000   1.0000   1.0000   1.0000   1.0000
     1.0000   1.0000   1.0000   1.0000   1.0000   1.0000   1.0000   1.0000
     1.0000   1.0000   1.0000   1.0000   1.0000   1.0000   1.0000   1.0000
     1.0000   1.0000   1.0000   1.0000   1.0000   1.0000   1.0000   1.0000
     1.0000   1.0000   1.0000   1.0000   1.0000   1.0000   1.0000   1.0000
     1.0000   1.0000   1.0000   1.0000   1.0000   1.0000   1.0000   1.0000
     1.0000   1.0000   1.0000   1.0000   1.0000   1.0000   1.0000   1.0000
     1.0000   1.0000   1.0000   1.0000   1.0000   1.0000   1.0000   1.0000
     1.0000   1.0000   1.0000   1.0000   1.0000   1.0000   1.0000   1.0000
     1.0000   1.0000   1.0000   1.0000   1.0000   1.0000   1.0000   1.0000
     1.0000   1.0000   1.0000   1.0000   1.0000   1.0000   1.0000   1.0000
     1.0000   1.0000   1.0000   1.0000   1.0000   1.0000   1.0000   1.0000
     1.0000   1.0000   1.0000   1.0000   1.0000   1.0000   1.0000   1.0000
     1.0000   1.0000   1.0000   1.0000   1.0000   1.0000   1.0000   1.0000
     1.0000   1.0000   1.0000   1.0000   1.0000   1.0000   1.0000   1.0000
     1.0000   1.0000   1.0000   1.0000   1.0000   1.0000   1.0000   1.0000
     1.0000   1.0000   1.0000   1.0000   1.0000   1.0000   1.0000   1.0000
     1.0000   1.0000   1.0000   1.0000   1.0000   1.0000   1.0000   1.0000
     1.0000   1.0000   1.0000   1.0000   1.0000   1.0000   1.0000   1.0000
     1.0000   1.0000   1.0000   1.0000   1.0000   1.0000   1.0000   1.0000
     1.0000   1.0000   1.0000   1.0000   1.0000   1.0000   1.0000   1.0000
     1.0000   1.0000   1.0000   1.0000   1.0000   1.0000   1.0000   1.0000
     1.0000   1.0000   1.0000   1.0000   1.0000   1.0000   1.0000   1.0000
     1.0000   1.0000   1.0000   1.0000   1.0000   1.0000   1.0000   1.0000
     1.0000   1.0000   1.0000   1.0000   1.0000   1.0000   0.9999   0.9999
     0.9974   0.9974   0.9974   0.9974   0.9872   0.9872   0.9434   0.9433
     0.3903   0.3903   0.3872   0.3871   0.0464   0.0464   0.0000   0.0000
     0.0000   0.0000   0.0000   0.0000   0.0000   0.0000   0.0000   0.0000
     0.0000   0.0000   0.0000   0.0000   0.0000   0.0000   0.0000   0.0000
     0.0000   0.0000   0.0000   0.0000   0.0000   0.0000   0.0000   0.0000
     0.0000   0.0000   0.0000   0.0000   0.0000   0.0000   0.0000   0.0000
     0.0000   0.0000   0.0000   0.0000   0.0000   0.0000   0.0000   0.0000
     0.0000   0.0000   0.0000   0.0000   0.0000   0.0000   0.0000   0.0000
     0.0000   0.0000   0.0000   0.0000   0.0000   0.0000   0.0000   0.0000
     0.0000   0.0000   0.0000   0.0000   0.0000   0.0000   0.0000   0.0000
     0.0000   0.0000   0.0000   0.0000   0.0000

          k =-0.5000-0.5000 0.0000 ( 26028 PWs)   bands (ev):

   -43.8695 -43.8695 -43.8695 -43.8695 -43.8694 -43.8694 -43.8694 -43.8694
   -43.8435 -43.8435 -43.8435 -43.8434 -43.8276 -43.8276 -43.8276 -43.8276
   -43.7970 -43.7970 -43.7970 -43.7970 -43.7970 -43.7969 -43.7969 -43.7969
   -43.7589 -43.7589 -43.7589 -43.7589 -43.7088 -43.7088 -43.7088 -43.7088
   -43.6897 -43.6897 -43.6896 -43.6896 -43.6896 -43.6896 -43.6896 -43.6896
   -43.6607 -43.6607 -43.6607 -43.6607 -43.6607 -43.6607 -43.6607 -43.6606
   -43.6522 -43.6522 -43.6522 -43.6522 -43.6467 -43.6467 -43.6467 -43.6467
   -43.6466 -43.6466 -43.6466 -43.6466 -43.6402 -43.6402 -43.6402 -43.6402
   -43.6343 -43.6343 -43.6343 -43.6343 -43.6114 -43.6114 -43.6114 -43.6114
   -43.6113 -43.6113 -43.6113 -43.6113 -43.5972 -43.5972 -43.5972 -43.5972
   -43.5921 -43.5921 -43.5920 -43.5920 -43.5635 -43.5635 -43.5635 -43.5634
   -43.5280 -43.5280 -43.5280 -43.5280 -43.5221 -43.5221 -43.5221 -43.5221
   -43.1609 -43.1609 -43.1609 -43.1609 -43.1608 -43.1608 -43.1608 -43.1608
   -43.0697 -43.0697 -43.0697 -43.0697 -43.0695 -43.0695 -43.0695 -43.0695
   -43.0550 -43.0550 -43.0550 -43.0550 -43.0549 -43.0549 -43.0548 -43.0548
   -42.9602 -42.9602 -42.9602 -42.9602 -42.9600 -42.9600 -42.9600 -42.9600
   -42.8611 -42.8611 -42.8611 -42.8610 -42.8609 -42.8609 -42.8609 -42.8608
   -42.8480 -42.8479 -42.8479 -42.8479 -42.8478 -42.8478 -42.8478 -42.8477
     0.9424   0.9424   0.9424   0.9424   1.6282   1.6282   1.6282   1.6283
     2.4347   2.4347   2.4347   2.4347   3.0105   3.0105   3.0105   3.0105
     3.1693   3.1693   3.1693   3.1693   3.1694   3.1694   3.1694   3.1694
     3.2980   3.2980   3.2980   3.2980   3.2981   3.2981   3.2981   3.2981
     3.5036   3.5036   3.5036   3.5036   3.5712   3.5712   3.5712   3.5712
     3.6556   3.6556   3.6556   3.6556   3.6556   3.6556   3.6556   3.6556
     4.0104   4.0104   4.0104   4.0104   4.1537   4.1537   4.1537   4.1537
     4.1537   4.1537   4.1537   4.1537   4.5166   4.5166   4.5166   4.5166
     4.6624   4.6624   4.6624   4.6624   4.6624   4.6625   4.6625   4.6625
     4.9921   4.9921   4.9921   4.9921   5.0222   5.0222   5.0222   5.0222
     5.0222   5.0223   5.0223   5.0223   5.1858   5.1858   5.1858   5.1858
     5.3047   5.3047   5.3047   5.3047   5.4979   5.4979   5.4979   5.4979
     5.6626   5.6626   5.6626   5.6626   5.7774   5.7774   5.7774   5.7774
     5.7774   5.7774   5.7774   5.7774   5.8290   5.8290   5.8290   5.8290
     5.8624   5.8624   5.8624   5.8624   5.9253   5.9253   5.9253   5.9253
     5.9429   5.9429   5.9429   5.9429   5.9429   5.9429   5.9429   5.9430
     5.9441   5.9442   5.9442   5.9442   6.0076   6.0076   6.0076   6.0077
     6.3325   6.3326   6.3326   6.3326   6.6900   6.6900   6.6900   6.6900
     6.7124   6.7124   6.7124   6.7124   6.7131   6.7131   6.7131   6.7132
     6.7346   6.7346   6.7346   6.7346   6.7346   6.7346   6.7347   6.7347
     6.9697   6.9697   6.9697   6.9697   6.9699   6.9699   6.9699   6.9699
     7.2325   7.2325   7.2325   7.2325   7.2325   7.2325   7.2325   7.2325
     7.2548   7.2548   7.2548   7.2548   7.2934   7.2935   7.2935   7.2935
     7.7533   7.7533   7.7533   7.7534   7.7786   7.7786   7.7786   7.7786
     7.8948   7.8948   7.8948   7.8949   7.9591   7.9591   7.9591   7.9591
     7.9592   7.9592   7.9592   7.9592   7.9707   7.9708   7.9708   7.9708
     8.1217   8.1217   8.1217   8.1218   8.4518   8.4518   8.4518   8.4518
     8.4518   8.4518   8.4518   8.4519   8.5781   8.5781   8.5781   8.5781
     8.9609   8.9609   8.9609   8.9609   8.9662   8.9662   8.9662   8.9662
     8.9733   8.9733   8.9733   8.9733   8.9733   8.9733   8.9733   8.9733
     9.0341   9.0341   9.0341   9.0341   9.1065   9.1065   9.1065   9.1065
     9.1065   9.1065   9.1065   9.1065   9.1604   9.1604   9.1604   9.1604
    10.7314  10.7314  10.7314  10.7315  11.2832  11.2832  11.2832  11.2832
    11.2832  11.2832  11.2832  11.2832  12.0618  12.0618  12.0618  12.0618
    12.0618  12.0618  12.0618  12.0618  12.7373  12.7373  12.7373  12.7374
    12.9741  12.9741  12.9741  12.9741  12.9741  12.9741  12.9741  12.9741
    14.1561  14.1561  14.1561  14.1561  14.1561  14.1561  14.1561  14.1562
    14.4118  14.4118  14.4118  14.4118  15.1488  15.1488  15.1488  15.1488
    15.5922  15.5922  15.5922  15.5922  15.5922  15.5922  15.5922  15.5922
    15.7178  15.7178  15.7178  15.7178  16.3797

     occupation numbers 
     1.0000   1.0000   1.0000   1.0000   1.0000   1.0000   1.0000   1.0000
     1.0000   1.0000   1.0000   1.0000   1.0000   1.0000   1.0000   1.0000
     1.0000   1.0000   1.0000   1.0000   1.0000   1.0000   1.0000   1.0000
     1.0000   1.0000   1.0000   1.0000   1.0000   1.0000   1.0000   1.0000
     1.0000   1.0000   1.0000   1.0000   1.0000   1.0000   1.0000   1.0000
     1.0000   1.0000   1.0000   1.0000   1.0000   1.0000   1.0000   1.0000
     1.0000   1.0000   1.0000   1.0000   1.0000   1.0000   1.0000   1.0000
     1.0000   1.0000   1.0000   1.0000   1.0000   1.0000   1.0000   1.0000
     1.0000   1.0000   1.0000   1.0000   1.0000   1.0000   1.0000   1.0000
     1.0000   1.0000   1.0000   1.0000   1.0000   1.0000   1.0000   1.0000
     1.0000   1.0000   1.0000   1.0000   1.0000   1.0000   1.0000   1.0000
     1.0000   1.0000   1.0000   1.0000   1.0000   1.0000   1.0000   1.0000
     1.0000   1.0000   1.0000   1.0000   1.0000   1.0000   1.0000   1.0000
     1.0000   1.0000   1.0000   1.0000   1.0000   1.0000   1.0000   1.0000
     1.0000   1.0000   1.0000   1.0000   1.0000   1.0000   1.0000   1.0000
     1.0000   1.0000   1.0000   1.0000   1.0000   1.0000   1.0000   1.0000
     1.0000   1.0000   1.0000   1.0000   1.0000   1.0000   1.0000   1.0000
     1.0000   1.0000   1.0000   1.0000   1.0000   1.0000   1.0000   1.0000
     1.0000   1.0000   1.0000   1.0000   1.0000   1.0000   1.0000   1.0000
     1.0000   1.0000   1.0000   1.0000   1.0000   1.0000   1.0000   1.0000
     1.0000   1.0000   1.0000   1.0000   1.0000   1.0000   1.0000   1.0000
     1.0000   1.0000   1.0000   1.0000   1.0000   1.0000   1.0000   1.0000
     1.0000   1.0000   1.0000   1.0000   1.0000   1.0000   1.0000   1.0000
     1.0000   1.0000   1.0000   1.0000   1.0000   1.0000   1.0000   1.0000
     1.0000   1.0000   1.0000   1.0000   1.0000   1.0000   1.0000   1.0000
     1.0000   1.0000   1.0000   1.0000   1.0000   1.0000   1.0000   1.0000
     1.0000   1.0000   1.0000   1.0000   1.0000   1.0000   1.0000   1.0000
     1.0000   1.0000   1.0000   1.0000   1.0000   1.0000   1.0000   1.0000
     1.0000   1.0000   1.0000   1.0000   1.0000   1.0000   1.0000   1.0000
     1.0000   1.0000   1.0000   1.0000   1.0000   1.0000   1.0000   1.0000
     1.0000   1.0000   1.0000   1.0000   1.0000   1.0000   1.0000   1.0000
     1.0000   1.0000   1.0000   1.0000   1.0000   1.0000   1.0000   1.0000
     1.0000   1.0000   1.0000   1.0000   1.0000   1.0000   1.0000   1.0000
     1.0000   1.0000   1.0000   1.0000   1.0000   1.0000   1.0000   1.0000
     1.0000   1.0000   1.0000   1.0000   1.0000   1.0000   1.0000   1.0000
     1.0000   1.0000   1.0000   1.0000   1.0000   1.0000   1.0000   1.0000
     1.0000   1.0000   1.0000   1.0000   1.0000   1.0000   1.0000   1.0000
     1.0000   1.0000   1.0000   1.0000   1.0000   1.0000   1.0000   1.0000
     1.0000   1.0000   1.0000   1.0000   1.0000   1.0000   1.0000   1.0000
[...]
     atom   17 type  1   force =     0.00000000   -0.00000007    0.00094452
     atom   18 type  1   force =     0.00000000    0.00000000   -0.02453755
     atom   19 type  1   force =     0.00000000   -0.00000045   -0.00368249
     atom   20 type  1   force =    -0.00000000   -0.00000002    0.00094501
     atom   21 type  1   force =    -0.00000000   -0.00000010   -0.02453698
     atom   22 type  1   force =     0.00000000    0.00000045   -0.00368249
     atom   23 type  1   force =    -0.00000000    0.00000002    0.00094501
     atom   24 type  1   force =    -0.00000000    0.00000010   -0.02453698
     atom   25 type  1   force =    -0.00000040    0.00000000   -0.00368239
     atom   26 type  1   force =     0.00000007    0.00000000    0.00094452
     atom   27 type  1   force =    -0.00000000    0.00000000   -0.02453755
     atom   28 type  1   force =    -0.00000045    0.00000000   -0.00368249
     atom   29 type  1   force =    -0.00000002   -0.00000000    0.00094501
     atom   30 type  1   force =    -0.00000010   -0.00000000   -0.02453698
     atom   31 type  1   force =     0.00000040    0.00000000   -0.00368239
     atom   32 type  1   force =    -0.00000007    0.00000000    0.00094452
     atom   33 type  1   force =     0.00000000    0.00000000   -0.02453755
     atom   34 type  1   force =     0.00000045   -0.00000000   -0.00368249
     atom   35 type  1   force =     0.00000002    0.00000000    0.00094501
     atom   36 type  1   force =     0.00000010   -0.00000000   -0.02453698
     atom   37 type  1   force =    -0.00000027   -0.00000027    0.02453772
     atom   38 type  1   force =    -0.00000017   -0.00000017   -0.00094511
     atom   39 type  1   force =     0.00000008    0.00000008    0.00368275
     atom   40 type  1   force =    -0.00000027    0.00000027    0.02453772
     atom   41 type  1   force =    -0.00000017    0.00000017   -0.00094511
     atom   42 type  1   force =     0.00000008   -0.00000008    0.00368275
     atom   43 type  1   force =     0.00000027   -0.00000027    0.02453772
     atom   44 type  1   force =     0.00000017   -0.00000017   -0.00094511
     atom   45 type  1   force =    -0.00000008    0.00000008    0.00368275
     atom   46 type  1   force =     0.00000027    0.00000027    0.02453772
     atom   47 type  1   force =     0.00000017    0.00000017   -0.00094511
     atom   48 type  1   force =    -0.00000008   -0.00000008    0.00368275
     The Hubbard contrib.    to forces
     atom    1 type  1   force =     0.00000000    0.00000000    0.00000000
     atom    2 type  1   force =     0.00000000    0.00000000    0.00000000
     atom    3 type  1   force =     0.00000000    0.00000000    0.00000000
     atom    4 type  1   force =     0.00000000    0.00000000    0.00000000
     atom    5 type  1   force =     0.00000000    0.00000000    0.00000000
     atom    6 type  1   force =     0.00000000    0.00000000    0.00000000
     atom    7 type  1   force =     0.00000000    0.00000000    0.00000000
     atom    8 type  1   force =     0.00000000    0.00000000    0.00000000
     atom    9 type  1   force =     0.00000000    0.00000000    0.00000000
     atom   10 type  1   force =     0.00000000    0.00000000    0.00000000
     atom   11 type  1   force =     0.00000000    0.00000000    0.00000000
     atom   12 type  1   force =     0.00000000    0.00000000    0.00000000
     atom   13 type  1   force =     0.00000000    0.00000000    0.00000000
     atom   14 type  1   force =     0.00000000    0.00000000    0.00000000
     atom   15 type  1   force =     0.00000000    0.00000000    0.00000000
     atom   16 type  1   force =     0.00000000    0.00000000    0.00000000
     atom   17 type  1   force =     0.00000000    0.00000000    0.00000000
     atom   18 type  1   force =     0.00000000    0.00000000    0.00000000
     atom   19 type  1   force =     0.00000000    0.00000000    0.00000000
     atom   20 type  1   force =     0.00000000    0.00000000    0.00000000
     atom   21 type  1   force =     0.00000000    0.00000000    0.00000000
     atom   22 type  1   force =     0.00000000    0.00000000    0.00000000
     atom   23 type  1   force =     0.00000000    0.00000000    0.00000000
     atom   24 type  1   force =     0.00000000    0.00000000    0.00000000
     atom   25 type  1   force =     0.00000000    0.00000000    0.00000000
     atom   26 type  1   force =     0.00000000    0.00000000    0.00000000
     atom   27 type  1   force =     0.00000000    0.00000000    0.00000000
     atom   28 type  1   force =     0.00000000    0.00000000    0.00000000
     atom   29 type  1   force =     0.00000000    0.00000000    0.00000000
     atom   30 type  1   force =     0.00000000    0.00000000    0.00000000
     atom   31 type  1   force =     0.00000000    0.00000000    0.00000000
     atom   32 type  1   force =     0.00000000    0.00000000    0.00000000
     atom   33 type  1   force =     0.00000000    0.00000000    0.00000000
     atom   34 type  1   force =     0.00000000    0.00000000    0.00000000
     atom   35 type  1   force =     0.00000000    0.00000000    0.00000000
     atom   36 type  1   force =     0.00000000    0.00000000    0.00000000
     atom   37 type  1   force =     0.00000000    0.00000000    0.00000000
     atom   38 type  1   force =     0.00000000    0.00000000    0.00000000
     atom   39 type  1   force =     0.00000000    0.00000000    0.00000000
     atom   40 type  1   force =     0.00000000    0.00000000    0.00000000
     atom   41 type  1   force =     0.00000000    0.00000000    0.00000000
     atom   42 type  1   force =     0.00000000    0.00000000    0.00000000
     atom   43 type  1   force =     0.00000000    0.00000000    0.00000000
     atom   44 type  1   force =     0.00000000    0.00000000    0.00000000
     atom   45 type  1   force =     0.00000000    0.00000000    0.00000000
     atom   46 type  1   force =     0.00000000    0.00000000    0.00000000
     atom   47 type  1   force =     0.00000000    0.00000000    0.00000000
     atom   48 type  1   force =     0.00000000    0.00000000    0.00000000
     The SCF correction term to forces
     atom    1 type  1   force =     0.00000000    0.00000000   -0.00006242
     atom    2 type  1   force =    -0.00000000   -0.00000000    0.00011284
     atom    3 type  1   force =    -0.00000000   -0.00000000   -0.00003954
     atom    4 type  1   force =    -0.00000000   -0.00000000   -0.00000927
     atom    5 type  1   force =     0.00000000   -0.00000000    0.00009441
     atom    6 type  1   force =     0.00000000    0.00000000   -0.00003704
     atom    7 type  1   force =     0.00000000    0.00000000   -0.00000927
     atom    8 type  1   force =     0.00000000   -0.00000000    0.00009441
     atom    9 type  1   force =    -0.00000000   -0.00000000   -0.00003704
     atom   10 type  1   force =     0.00000000   -0.00000000    0.00003679
     atom   11 type  1   force =    -0.00000000   -0.00000000    0.00007481
     atom   12 type  1   force =     0.00000000    0.00000000   -0.00003231
     atom   13 type  1   force =     0.00000000    0.00008859    0.00006626
     atom   14 type  1   force =    -0.00000000    0.00007249    0.00000678
     atom   15 type  1   force =     0.00000000    0.00006215   -0.00000244
     atom   16 type  1   force =     0.00000000   -0.00008859    0.00006626
     atom   17 type  1   force =    -0.00000000   -0.00007249    0.00000678
     atom   18 type  1   force =     0.00000000   -0.00006215   -0.00000244
     atom   19 type  1   force =    -0.00000000    0.00008512    0.00009444
     atom   20 type  1   force =    -0.00000000    0.00006813   -0.00001018
     atom   21 type  1   force =     0.00000000    0.00005826   -0.00002258
     atom   22 type  1   force =    -0.00000000   -0.00008512    0.00009444
     atom   23 type  1   force =    -0.00000000   -0.00006813   -0.00001018
     atom   24 type  1   force =     0.00000000   -0.00005826   -0.00002258
     atom   25 type  1   force =     0.00008859   -0.00000000    0.00006626
     atom   26 type  1   force =     0.00007249    0.00000000    0.00000678
     atom   27 type  1   force =     0.00006215    0.00000000   -0.00000244
     atom   28 type  1   force =     0.00008512   -0.00000000    0.00009444
     atom   29 type  1   force =     0.00006813    0.00000000   -0.00001018
     atom   30 type  1   force =     0.00005826   -0.00000000   -0.00002258
     atom   31 type  1   force =    -0.00008859   -0.00000000    0.00006626
     atom   32 type  1   force =    -0.00007249    0.00000000    0.00000678
     atom   33 type  1   force =    -0.00006215    0.00000000   -0.00000244
     atom   34 type  1   force =    -0.00008512    0.00000000    0.00009444
     atom   35 type  1   force =    -0.00006813    0.00000000   -0.00001018
     atom   36 type  1   force =    -0.00005826   -0.00000000   -0.00002258
     atom   37 type  1   force =     0.00005340    0.00005340   -0.00001049
     atom   38 type  1   force =     0.00008908    0.00008908    0.00009418
     atom   39 type  1   force =     0.00006642    0.00006642   -0.00003713
     atom   40 type  1   force =     0.00005340   -0.00005340   -0.00001049
     atom   41 type  1   force =     0.00008908   -0.00008908    0.00009418
     atom   42 type  1   force =     0.00006642   -0.00006642   -0.00003713
     atom   43 type  1   force =    -0.00005340    0.00005340   -0.00001049
     atom   44 type  1   force =    -0.00008908    0.00008908    0.00009418
     atom   45 type  1   force =    -0.00006642    0.00006642   -0.00003713
     atom   46 type  1   force =    -0.00005340   -0.00005340   -0.00001049
     atom   47 type  1   force =    -0.00008908   -0.00008908    0.00009418
     atom   48 type  1   force =    -0.00006642   -0.00006642   -0.00003713

     Total force =     0.001066     Total SCF correction =     0.000628
     SCF correction compared to forces is large: reduce conv_thr to get better values


     Computing stress (Cartesian axis) and pressure


     negative rho (up, down):  8.463E+00 0.000E+00
          total   stress  (Ry/bohr**3)                   (kbar)     P=      -42.69
  -0.00035470   0.00000000   0.00000000          -52.18        0.00        0.00
   0.00000000  -0.00035470   0.00000000            0.00      -52.18        0.00
   0.00000000   0.00000000  -0.00016116            0.00        0.00      -23.71

     kinetic stress (kbar)  28644.39      0.00      0.00
                                0.00  28644.39      0.00
                                0.00      0.00  28795.68

     local   stress (kbar)-770601.21      0.00      0.00
                                0.00-770601.21      0.00
                                0.00      0.00 793784.19

     nonloc. stress (kbar)   -173.96      0.00      0.00
                                0.00   -173.96      0.00
                                0.00      0.00   -141.22

     hartree stress (kbar) 392630.93     -0.00      0.00
                               -0.00 392630.93      0.00
                                0.00      0.00-379316.84

     exc-cor stress (kbar)  21072.89     -0.00     -0.00
                               -0.00  21072.89     -0.00
                               -0.00     -0.00  21067.92

     corecor stress (kbar) -29061.33      0.00     -0.00
                                0.00 -29061.33      0.00
                               -0.00      0.00 -29065.71

     ewald   stress (kbar) 357436.12      0.00      0.00
                                0.00 357436.12      0.00
                                0.00      0.00-435147.74

     hubbard stress (kbar)      0.00      0.00      0.00
                                0.00      0.00      0.00
                                0.00      0.00      0.00

     DFT-D   stress (kbar)      0.00      0.00      0.00
                                0.00      0.00      0.00
                                0.00      0.00      0.00

     XDM     stress (kbar)      0.00      0.00      0.00
                                0.00      0.00      0.00
                                0.00      0.00      0.00

     dft-nl  stress (kbar)      0.00      0.00      0.00
                                0.00      0.00      0.00
                                0.00      0.00      0.00

     TS-vdW  stress (kbar)      0.00      0.00      0.00
                                0.00      0.00      0.00
                                0.00      0.00      0.00


     Energy error            =      7.2E-05
     Gradient error          =      2.2E-04

     bfgs converged in  12 scf cycles and  11 bfgs steps
     (criteria: energy <  1.0E-04 Ry, force <  1.0E-03 Ry/Bohr)

     End of BFGS Geometry Optimization

     Final energy   =  -10112.1282830785 Ry

     File ./surface.bfgs deleted, as requested
Begin final coordinates

ATOMIC_POSITIONS (angstrom)
Pt            0.0000000000        0.0000000000        0.0980919143
Pt            0.0000000000        0.0000000000        3.9850287107
Pt            0.0000000000        0.0000000000        7.9224366880
Pt            0.0000000000        3.9767700000        0.0980716545
Pt            0.0000000000        3.9767700000        3.9850342947
Pt            0.0000000000        3.9767700000        7.9224379715
Pt            3.9767700000        0.0000000000        0.0980716545
Pt            3.9767700000        0.0000000000        3.9850342947
Pt            3.9767700000        0.0000000000        7.9224379715
Pt            3.9767700000        3.9767700000        0.0980688051
Pt            3.9767700000        3.9767700000        3.9850423691
Pt            3.9767700000        3.9767700000        7.9224363234
Pt            0.0000000000        1.9883748805        2.0194886660
Pt            0.0000000000        1.9883801445        5.9568735856
Pt            0.0000000000        1.9883825127        9.8438571811
Pt           -0.0000000000        5.9651651195        2.0194886660
Pt            0.0000000000        5.9651598555        5.9568735856
Pt            0.0000000000        5.9651574873        9.8438571811
Pt            3.9767700000        1.9883727445        2.0194931052
Pt            3.9767700000        1.9883781216        5.9568752997
Pt            3.9767700000        1.9883810630        9.8438611744
Pt            3.9767700000        5.9651672555        2.0194931052
Pt            3.9767700000        5.9651618784        5.9568752997
Pt            3.9767700000        5.9651589370        9.8438611744
Pt            1.9883748805       -0.0000000000        2.0194886660
Pt            1.9883801445        0.0000000000        5.9568735856
Pt            1.9883825127        0.0000000000        9.8438571811
Pt            1.9883727445        3.9767700000        2.0194931052
Pt            1.9883781216        3.9767700000        5.9568752997
Pt            1.9883810630        3.9767700000        9.8438611744
Pt            5.9651651195       -0.0000000000        2.0194886660
Pt            5.9651598555       -0.0000000000        5.9568735856
Pt            5.9651574873        0.0000000000        9.8438571811
Pt            5.9651672555        3.9767700000        2.0194931052
Pt            5.9651618784        3.9767700000        5.9568752997
Pt            5.9651589370        3.9767700000        9.8438611744
Pt            1.9883753905        1.9883753905        0.0980811452
Pt            1.9883750789        1.9883750789        3.9850351270
Pt            1.9883855149        1.9883855149        7.9224365529
Pt            1.9883753905        5.9651646095        0.0980811452
Pt            1.9883750789        5.9651649211        3.9850351270
Pt            1.9883855149        5.9651544851        7.9224365529
Pt            5.9651646095        1.9883753905        0.0980811452
Pt            5.9651649211        1.9883750789        3.9850351270
Pt            5.9651544851        1.9883855149        7.9224365529
Pt            5.9651646095        5.9651646095        0.0980811452
Pt            5.9651649211        5.9651649211        3.9850351270
Pt            5.9651544851        5.9651544851        7.9224365529
End final coordinates



     Writing output data file ./surface.save/

     init_run     :      7.44s CPU      8.26s WALL (       1 calls)
     electrons    :   2877.88s CPU   2984.06s WALL (      12 calls)
     update_pot   :      2.83s CPU      2.85s WALL (      11 calls)
     forces       :     40.13s CPU     42.27s WALL (      12 calls)
     stress       :    339.17s CPU    344.47s WALL (      12 calls)

     Called by init_run:
     wfcinit      :      6.60s CPU      7.13s WALL (       1 calls)
     wfcinit:atom :      0.03s CPU      0.05s WALL (       6 calls)
     wfcinit:wfcr :      6.39s CPU      6.75s WALL (       6 calls)
     potinit      :      0.11s CPU      0.12s WALL (       1 calls)
     hinit0       :      0.20s CPU      0.24s WALL (       1 calls)

     Called by electrons:
     c_bands      :   2546.59s CPU   2575.85s WALL (     226 calls)
     sum_band     :    303.50s CPU    344.11s WALL (     226 calls)
     v_of_rho     :      6.88s CPU      6.97s WALL (     237 calls)
     v_h          :      0.52s CPU      0.53s WALL (     237 calls)
     v_xc         :      7.00s CPU      7.08s WALL (     261 calls)
     newd         :     19.87s CPU     57.02s WALL (     237 calls)
     mix_rho      :      0.92s CPU      0.95s WALL (     226 calls)

     Called by c_bands:
     init_us_2    :     14.34s CPU     14.59s WALL (    2862 calls)
     cegterg      :   2504.31s CPU   2532.65s WALL (    1356 calls)

     Called by sum_band:
     sum_band:wei :      0.30s CPU      0.30s WALL (     226 calls)
     sum_band:loo :    267.07s CPU    270.43s WALL (     226 calls)
     sum_band:buf :      4.95s CPU      5.13s WALL (    1356 calls)
     sum_band:ini :      6.85s CPU      6.95s WALL (    1356 calls)
     sum_band:cal :    127.54s CPU    128.54s WALL (    1356 calls)
     sum_band:bec :      6.58s CPU      6.64s WALL (    1356 calls)
     addusdens    :     30.42s CPU     67.56s WALL (     226 calls)
     addusd:skk   :      1.84s CPU      2.21s WALL (     226 calls)
     addusd:dgemm :     19.23s CPU     51.79s WALL (     226 calls)
     addusd:qvan2 :      8.11s CPU      8.20s WALL (     226 calls)

     Called by *egterg:
     cdiaghg      :    549.55s CPU    553.33s WALL (    4892 calls)
     cegterg:over :    282.98s CPU    285.12s WALL (    3608 calls)
     cegterg:upda :    141.91s CPU    143.33s WALL (    3608 calls)
     cegterg:last :    284.91s CPU    287.03s WALL (    2042 calls)
     cdiaghg:chol :     27.70s CPU     27.91s WALL (    4892 calls)
     cdiaghg:inve :     30.34s CPU     30.54s WALL (    4892 calls)
     cdiaghg:para :    102.34s CPU    103.06s WALL (    9784 calls)
     h_psi        :    969.92s CPU    984.57s WALL (    4970 calls)
     s_psi        :    147.64s CPU    148.76s WALL (    4970 calls)
     g_psi        :      1.93s CPU      1.96s WALL (    3608 calls)

     Called by h_psi:
     h_psi:calbec :    291.57s CPU    293.98s WALL (    4970 calls)
     vloc_psi     :    518.42s CPU    527.27s WALL (    4970 calls)
     add_vuspsi   :    152.14s CPU    154.51s WALL (    4970 calls)

     General routines
     calbec       :    513.61s CPU    517.63s WALL (    6686 calls)
     fft          :      4.86s CPU      4.96s WALL (    3369 calls)
     ffts         :      0.40s CPU      0.40s WALL (     463 calls)
     fftw         :    610.84s CPU    621.17s WALL ( 3389550 calls)
     interpolate  :      0.46s CPU      0.47s WALL (     237 calls)

     Parallel routines
     fft_scatt_xy :     30.07s CPU     30.54s WALL ( 3393382 calls)
     fft_scatt_yz :    331.99s CPU    338.17s WALL ( 3393382 calls)

     PWSCF        :  54m31.11s CPU  56m30.51s WALL


   This run was terminated on:   3:37:32  10Dec2021            

=------------------------------------------------------------------------------=
   JOB DONE.
=------------------------------------------------------------------------------=
