
     Program PWSCF v.6.7MaX starts on 10Dec2021 at  3:51:39 

     This program is part of the open-source Quantum ESPRESSO suite
     for quantum simulation of materials; please cite
         "P. Giannozzi et al., J. Phys.:Condens. Matter 21 395502 (2009);
         "P. Giannozzi et al., J. Phys.:Condens. Matter 29 465901 (2017);
          URL http://www.quantum-espresso.org", 
     in publications or presentations arising from this work. More details at
     http://www.quantum-espresso.org/quote

     Parallel version (MPI), running on    16 processors

     MPI processes distributed on     1 nodes
     R & G space division:  proc/nbgrp/npool/nimage =      16
     Reading input from ag_surface.110.qe.7656381.1_1_3.in

     Current dimensions of program PWSCF are:
     Max number of different atomic species (ntypx) = 10
     Max number of k-points (npk) =  40000
     Max angular momentum in pseudopotentials (lmaxx) =  3

     Subspace diagonalization in iterative solution of the eigenvalue problem:
     one sub-group per band group will be used
     scalapack distributed-memory algorithm (size of sub-group:  4*  4 procs)


     Parallelization info
     --------------------
     sticks:   dense  smooth     PW     G-vecs:    dense   smooth      PW
     Min          65      26      8                 8533     2146     382
     Max          66      27      9                 8548     2164     397
     Sum        1045     417    137               136601    34521    6225



     bravais-lattice index     =            8
     lattice parameter (alat)  =       7.8623  a.u.
     unit-cell volume          =    1555.0245 (a.u.)^3
     number of atoms/cell      =            6
     number of atomic types    =            1
     number of electrons       =       114.00
     number of Kohn-Sham states=           68
     kinetic-energy cutoff     =      30.0000  Ry
     charge density cutoff     =     300.0000  Ry
     scf convergence threshold =      1.0E-06
     mixing beta               =       0.3000
     number of iterations used =            8  plain     mixing
     energy convergence thresh.=      1.0E-04
     force convergence thresh. =      1.0E-03
     Exchange-correlation=  SLA  PW   PBX  PBC
                           (   1   4   3   4   0   0   0)
     nstep                     =           50


     celldm(1)=   7.862300  celldm(2)=   0.707106  celldm(3)=   4.524846
     celldm(4)=   0.000000  celldm(5)=   0.000000  celldm(6)=   0.000000

     crystal axes: (cart. coord. in units of alat)
               a(1) = (   1.000000   0.000000   0.000000 )  
               a(2) = (   0.000000   0.707106   0.000000 )  
               a(3) = (   0.000000   0.000000   4.524846 )  

     reciprocal axes: (cart. coord. in units 2 pi/alat)
               b(1) = (  1.000000  0.000000  0.000000 )  
               b(2) = (  0.000000  1.414215  0.000000 )  
               b(3) = (  0.000000  0.000000  0.221002 )  


     PseudoPot. # 1 for Ag read from file:
     /expanse/lustre/projects/csd622/tpascal/nano110/qe/pseudo/ag_pbe_v1.4.uspp.F.UPF
     MD5 check sum: d66d668201baa78d5eb5b04ef7011058
     Pseudo is Ultrasoft + core correction, Zval = 19.0
     Generated by new atomic code, or converted to UPF format
     Using radial grid of  887 points,  6 beta functions with: 
                l(1) =   0
                l(2) =   0
                l(3) =   1
                l(4) =   1
                l(5) =   2
                l(6) =   2
     Q(r) pseudized with  6 coefficients,  rinner =    1.300   1.300   1.300
                                                       1.300   1.300

     atomic species   valence    mass     pseudopotential
        Ag            19.00   107.86820     Ag( 1.00)

      4 Sym. Ops. (no inversion) found


                                    s                        frac. trans.

      isym =  1     identity                                     

 cryst.   s( 1) = (     1          0          0      )
                  (     0          1          0      )
                  (     0          0          1      )

 cart.    s( 1) = (  1.0000000  0.0000000  0.0000000 )
                  (  0.0000000  1.0000000  0.0000000 )
                  (  0.0000000  0.0000000  1.0000000 )


      isym =  2     180 deg rotation - cart. axis [0,0,1]        

 cryst.   s( 2) = (    -1          0          0      )
                  (     0         -1          0      )
                  (     0          0          1      )

 cart.    s( 2) = ( -1.0000000  0.0000000  0.0000000 )
                  (  0.0000000 -1.0000000  0.0000000 )
                  (  0.0000000  0.0000000  1.0000000 )


      isym =  3     inv. 180 deg rotation - cart. axis [0,1,0]   

 cryst.   s( 3) = (     1          0          0      )
                  (     0         -1          0      )
                  (     0          0          1      )

 cart.    s( 3) = (  1.0000000  0.0000000  0.0000000 )
                  (  0.0000000 -1.0000000  0.0000000 )
                  (  0.0000000  0.0000000  1.0000000 )


      isym =  4     inv. 180 deg rotation - cart. axis [1,0,0]   

 cryst.   s( 4) = (    -1          0          0      )
                  (     0          1          0      )
                  (     0          0          1      )

 cart.    s( 4) = ( -1.0000000  0.0000000  0.0000000 )
                  (  0.0000000  1.0000000  0.0000000 )
                  (  0.0000000  0.0000000  1.0000000 )


     point group C_2v (mm2) 
     there are  4 classes
     the character table:

       E     C2    s_v   s_v' 
A_1    1.00  1.00  1.00  1.00
A_2    1.00  1.00 -1.00 -1.00
B_1    1.00 -1.00  1.00 -1.00
B_2    1.00 -1.00 -1.00  1.00

     the symmetry operations in each class and the name of the first element:

     E        1
          identity                                               
     C2       2
          180 deg rotation - cart. axis [0,0,1]                  
     s_v      4
          inv. 180 deg rotation - cart. axis [1,0,0]             
     s_v'     3
          inv. 180 deg rotation - cart. axis [0,1,0]             

   Cartesian axes

     site n.     atom                  positions (alat units)
         1           Ag  tau(   1) = (   0.0000000   0.0000000   0.0000000  )
         2           Ag  tau(   2) = (   0.0000000   0.0000000   0.7071060  )
         3           Ag  tau(   3) = (   0.0000000   0.0000000   1.4142121  )
         4           Ag  tau(   4) = (   0.5000000   0.3535530   0.3535530  )
         5           Ag  tau(   5) = (   0.5000000   0.3535530   1.0606590  )
         6           Ag  tau(   6) = (   0.5000000   0.3535530   1.7677651  )

   Crystallographic axes

     site n.     atom                  positions (cryst. coord.)
         1           Ag  tau(   1) = (  0.0000000  0.0000000  0.0000000  )
         2           Ag  tau(   2) = (  0.0000000  0.0000000  0.1562718  )
         3           Ag  tau(   3) = (  0.0000000  0.0000000  0.3125437  )
         4           Ag  tau(   4) = (  0.5000000  0.5000000  0.0781359  )
         5           Ag  tau(   5) = (  0.5000000  0.5000000  0.2344077  )
         6           Ag  tau(   6) = (  0.5000000  0.5000000  0.3906796  )

     number of k points=     9  Gaussian smearing, width (Ry)=  0.0030
                       cart. coord. in units 2pi/alat
        k(    1) = (   0.0000000   0.0000000   0.0000000), wk =   0.1250000
        k(    2) = (   0.0000000   0.3535538   0.0000000), wk =   0.2500000
        k(    3) = (   0.0000000  -0.7071075   0.0000000), wk =   0.1250000
        k(    4) = (   0.2500000   0.0000000   0.0000000), wk =   0.2500000
        k(    5) = (   0.2500000   0.3535538   0.0000000), wk =   0.5000000
        k(    6) = (   0.2500000  -0.7071075   0.0000000), wk =   0.2500000
        k(    7) = (  -0.5000000   0.0000000   0.0000000), wk =   0.1250000
        k(    8) = (  -0.5000000   0.3535538   0.0000000), wk =   0.2500000
        k(    9) = (  -0.5000000  -0.7071075   0.0000000), wk =   0.1250000

                       cryst. coord.
        k(    1) = (   0.0000000   0.0000000   0.0000000), wk =   0.1250000
        k(    2) = (   0.0000000   0.2500000   0.0000000), wk =   0.2500000
        k(    3) = (   0.0000000  -0.5000000   0.0000000), wk =   0.1250000
        k(    4) = (   0.2500000   0.0000000   0.0000000), wk =   0.2500000
        k(    5) = (   0.2500000   0.2500000   0.0000000), wk =   0.5000000
        k(    6) = (   0.2500000  -0.5000000   0.0000000), wk =   0.2500000
        k(    7) = (  -0.5000000   0.0000000   0.0000000), wk =   0.1250000
        k(    8) = (  -0.5000000   0.2500000   0.0000000), wk =   0.2500000
        k(    9) = (  -0.5000000  -0.5000000   0.0000000), wk =   0.1250000

     Dense  grid:   136601 G-vectors     FFT dimensions: (  45,  32, 200)

     Smooth grid:    34521 G-vectors     FFT dimensions: (  27,  20, 125)

     Dynamical RAM for                 wfc:       0.28 MB

     Dynamical RAM for     wfc (w. buffer):       2.79 MB

     Dynamical RAM for           str. fact:       0.13 MB

     Dynamical RAM for           local pot:       0.00 MB

     Dynamical RAM for          nlocal pot:       0.44 MB

     Dynamical RAM for                qrad:       1.39 MB

     Dynamical RAM for          rho,v,vnew:       0.82 MB

     Dynamical RAM for               rhoin:       0.27 MB

     Dynamical RAM for            rho*nmix:       2.08 MB

     Dynamical RAM for           G-vectors:       0.50 MB

     Dynamical RAM for          h,s,v(r/c):       0.05 MB

     Dynamical RAM for          <psi|beta>:       0.11 MB

     Dynamical RAM for                 psi:       0.56 MB

     Dynamical RAM for                hpsi:       0.56 MB

     Dynamical RAM for                spsi:       0.56 MB

     Dynamical RAM for      wfcinit/wfcrot:       0.78 MB

     Dynamical RAM for           addusdens:      25.00 MB

     Dynamical RAM for          addusforce:      26.40 MB

     Dynamical RAM for         addusstress:      26.18 MB

     Estimated static dynamical RAM per process >       9.41 MB

     Estimated max dynamical RAM per process >      35.81 MB

     Estimated total dynamical RAM >     572.91 MB

     Initial potential from superposition of free atoms

     starting charge  110.99972, renormalised to  114.00000

     negative rho (up, down):  1.085E-03 0.000E+00
     Starting wfcs are   78 randomized atomic wfcs

     total cpu time spent up to now is        0.6 secs

     Self-consistent Calculation

     iteration #  1     ecut=    30.00 Ry     beta= 0.30
     Davidson diagonalization with overlap
     ethr =  1.00E-02,  avg # of iterations =  5.6

     total cpu time spent up to now is        1.7 secs

     total energy              =   -1771.26411921 Ry
     estimated scf accuracy    <      10.01479064 Ry

     iteration #  2     ecut=    30.00 Ry     beta= 0.30
     Davidson diagonalization with overlap
     ethr =  8.78E-03,  avg # of iterations =  3.0

     negative rho (up, down):  1.331E-07 0.000E+00

     total cpu time spent up to now is        2.6 secs

     total energy              =   -1772.29034964 Ry
     estimated scf accuracy    <       6.69390580 Ry

     iteration #  3     ecut=    30.00 Ry     beta= 0.30
     Davidson diagonalization with overlap
     ethr =  5.87E-03,  avg # of iterations =  2.4

     negative rho (up, down):  1.312E-06 0.000E+00

     total cpu time spent up to now is        3.4 secs

     total energy              =   -1773.35922383 Ry
     estimated scf accuracy    <       2.05549556 Ry

     iteration #  4     ecut=    30.00 Ry     beta= 0.30
     Davidson diagonalization with overlap
     ethr =  1.80E-03,  avg # of iterations =  1.7

     negative rho (up, down):  8.982E-06 0.000E+00

     total cpu time spent up to now is        4.1 secs

     total energy              =   -1773.56942695 Ry
     estimated scf accuracy    <       0.06404060 Ry

     iteration #  5     ecut=    30.00 Ry     beta= 0.30
     Davidson diagonalization with overlap
     ethr =  5.62E-05,  avg # of iterations =  5.4

     negative rho (up, down):  5.882E-05 0.000E+00

     total cpu time spent up to now is        5.1 secs

     total energy              =   -1773.57260524 Ry
     estimated scf accuracy    <       0.01376378 Ry

     iteration #  6     ecut=    30.00 Ry     beta= 0.30
     Davidson diagonalization with overlap
     ethr =  1.21E-05,  avg # of iterations =  5.6

     negative rho (up, down):  1.007E-04 0.000E+00

     total cpu time spent up to now is        6.1 secs

     total energy              =   -1773.57099457 Ry
     estimated scf accuracy    <       0.06624663 Ry

     iteration #  7     ecut=    30.00 Ry     beta= 0.30
     Davidson diagonalization with overlap
     ethr =  1.21E-05,  avg # of iterations =  3.3

     negative rho (up, down):  4.210E-04 0.000E+00

     total cpu time spent up to now is        6.9 secs

     total energy              =   -1773.57421092 Ry
     estimated scf accuracy    <       0.00262037 Ry

     iteration #  8     ecut=    30.00 Ry     beta= 0.30
     Davidson diagonalization with overlap
     ethr =  2.30E-06,  avg # of iterations =  2.4

     negative rho (up, down):  7.339E-04 0.000E+00

     total cpu time spent up to now is        7.7 secs

     total energy              =   -1773.57444784 Ry
     estimated scf accuracy    <       0.00066047 Ry

     iteration #  9     ecut=    30.00 Ry     beta= 0.30
     Davidson diagonalization with overlap
     ethr =  5.79E-07,  avg # of iterations =  3.4

     negative rho (up, down):  8.117E-04 0.000E+00

     total cpu time spent up to now is        8.7 secs

     total energy              =   -1773.57460334 Ry
     estimated scf accuracy    <       0.00008047 Ry

     iteration # 10     ecut=    30.00 Ry     beta= 0.30
     Davidson diagonalization with overlap
     ethr =  7.06E-08,  avg # of iterations =  1.0

     negative rho (up, down):  8.699E-04 0.000E+00

     total cpu time spent up to now is        9.3 secs

     total energy              =   -1773.57460534 Ry
     estimated scf accuracy    <       0.00001387 Ry

     iteration # 11     ecut=    30.00 Ry     beta= 0.30
     Davidson diagonalization with overlap
     ethr =  1.22E-08,  avg # of iterations =  2.0

     negative rho (up, down):  8.974E-04 0.000E+00

     total cpu time spent up to now is       10.1 secs

     total energy              =   -1773.57460684 Ry
     estimated scf accuracy    <       0.00000128 Ry

     iteration # 12     ecut=    30.00 Ry     beta= 0.30
     Davidson diagonalization with overlap
     ethr =  1.13E-09,  avg # of iterations =  2.0

     negative rho (up, down):  9.180E-04 0.000E+00

     total cpu time spent up to now is       10.8 secs

     End of self-consistent calculation

          k = 0.0000 0.0000 0.0000 (  4295 PWs)   bands (ev):

   -86.4285 -86.4193 -86.4093 -86.4088 -86.1656 -86.1656 -49.9355 -49.9031
   -49.9005 -49.8968 -49.8751 -49.8620 -49.8590 -49.8551 -49.8420 -49.8370
   -49.8353 -49.8337 -49.6352 -49.6347 -49.6286 -49.6284 -49.6063 -49.6056
    -1.5225  -0.5018  -0.4592  -0.2267  -0.1181   0.2944   0.3054   0.5467
     0.6180   0.6336   0.8531   0.9568   0.9700   0.9903   1.1421   1.2638
     1.2802   1.2890   1.5337   1.5357   1.7197   1.7461   1.7701   1.8207
     1.8418   2.1130   2.1352   2.1498   2.3871   2.4306   2.4776   2.6515
     3.1657   4.9536   6.9652   7.8340   8.9063   9.1172   9.6814  11.1801
    11.6905  12.0100  12.0757  12.6433

     occupation numbers 
     1.0000   1.0000   1.0000   1.0000   1.0000   1.0000   1.0000   1.0000
     1.0000   1.0000   1.0000   1.0000   1.0000   1.0000   1.0000   1.0000
     1.0000   1.0000   1.0000   1.0000   1.0000   1.0000   1.0000   1.0000
     1.0000   1.0000   1.0000   1.0000   1.0000   1.0000   1.0000   1.0000
     1.0000   1.0000   1.0000   1.0000   1.0000   1.0000   1.0000   1.0000
     1.0000   1.0000   1.0000   1.0000   1.0000   1.0000   1.0000   1.0000
     1.0000   1.0000   1.0000   1.0000   1.0000   1.0000   1.0000   1.0000
     1.0000   1.0000   0.0000   0.0000   0.0000   0.0000   0.0000   0.0000
     0.0000   0.0000   0.0000   0.0000

          k = 0.0000 0.3536 0.0000 (  4324 PWs)   bands (ev):

   -86.4244 -86.4176 -86.4079 -86.4072 -86.1635 -86.1634 -49.9162 -49.9145
   -49.9129 -49.8986 -49.8911 -49.8787 -49.8733 -49.8657 -49.8643 -49.8475
   -49.8466 -49.8372 -49.6624 -49.6620 -49.6324 -49.6315 -49.6053 -49.6046
    -0.4997  -0.1359  -0.0376  -0.0229   0.0441   0.0715   0.2465   0.4283
     0.5915   0.6212   0.7051   0.8667   1.0292   1.1645   1.2314   1.3153
     1.5892   1.5960   1.6157   1.6764   1.7034   1.8631   1.9221   1.9415
     2.0696   2.1090   2.1691   2.2272   2.2630   2.3405   2.6039   2.6300
     3.8635   6.0108   8.1131   9.9842  10.0666  10.1959  10.9448  11.3786
    12.0508  12.1390  12.6489  12.6840

     occupation numbers 
     1.0000   1.0000   1.0000   1.0000   1.0000   1.0000   1.0000   1.0000
     1.0000   1.0000   1.0000   1.0000   1.0000   1.0000   1.0000   1.0000
     1.0000   1.0000   1.0000   1.0000   1.0000   1.0000   1.0000   1.0000
     1.0000   1.0000   1.0000   1.0000   1.0000   1.0000   1.0000   1.0000
     1.0000   1.0000   1.0000   1.0000   1.0000   1.0000   1.0000   1.0000
     1.0000   1.0000   1.0000   1.0000   1.0000   1.0000   1.0000   1.0000
     1.0000   1.0000   1.0000   1.0000   1.0000   1.0000   1.0000   1.0000
     1.0000   0.0000   0.0000   0.0000   0.0000   0.0000   0.0000   0.0000
     0.0000   0.0000   0.0000   0.0000

          k = 0.0000-0.7071 0.0000 (  4298 PWs)   bands (ev):

   -86.4182 -86.4181 -86.4061 -86.4058 -86.1613 -86.1613 -49.9389 -49.9388
   -49.9234 -49.9232 -49.8779 -49.8778 -49.8731 -49.8727 -49.8725 -49.8725
   -49.8424 -49.8421 -49.6951 -49.6950 -49.6289 -49.6288 -49.6034 -49.6033
    -0.4418  -0.4417  -0.3493  -0.3493   0.1143   0.1143   0.1358   0.1358
     0.7321   0.7321   0.7330   0.7331   0.9658   0.9658   1.6236   1.6236
     1.6804   1.6805   1.9425   1.9426   2.2124   2.2125   2.3320   2.3320
     2.3720   2.3720   2.5460   2.5461   2.6159   2.6159   5.0996   5.0997
     5.8442   5.8442   7.0206   7.0206   9.5243   9.5244  12.4233  12.4235
    13.6298  13.6307  13.6674  13.6675

     occupation numbers 
     1.0000   1.0000   1.0000   1.0000   1.0000   1.0000   1.0000   1.0000
     1.0000   1.0000   1.0000   1.0000   1.0000   1.0000   1.0000   1.0000
     1.0000   1.0000   1.0000   1.0000   1.0000   1.0000   1.0000   1.0000
     1.0000   1.0000   1.0000   1.0000   1.0000   1.0000   1.0000   1.0000
     1.0000   1.0000   1.0000   1.0000   1.0000   1.0000   1.0000   1.0000
     1.0000   1.0000   1.0000   1.0000   1.0000   1.0000   1.0000   1.0000
     1.0000   1.0000   1.0000   1.0000   1.0000   1.0000   1.0000   1.0000
     0.0000   0.0000   0.0000   0.0000   0.0000   0.0000   0.0000   0.0000
     0.0000   0.0000   0.0000   0.0000

          k = 0.2500 0.0000 0.0000 (  4310 PWs)   bands (ev):

   -86.4266 -86.4198 -86.4101 -86.4094 -86.1657 -86.1656 -49.9290 -49.9265
   -49.9070 -49.8715 -49.8682 -49.8661 -49.8565 -49.8513 -49.8458 -49.8406
   -49.8392 -49.8358 -49.6346 -49.6345 -49.6295 -49.6293 -49.6059 -49.6058
    -0.9861  -0.4385  -0.2996  -0.2253  -0.0813   0.0592   0.1931   0.6196
     0.7441   0.7756   0.9558   1.0427   1.0595   1.0603   1.2099   1.2129
     1.3151   1.4408   1.4812   1.6904   1.7362   1.8277   1.8560   1.9128
     2.0114   2.0272   2.1235   2.2024   2.3101   2.4015   2.5069   2.5491
     3.3560   5.0367   5.4695   6.6207   7.2976   8.2118   9.5936   9.7442
    11.0720  11.9036  12.3437  12.8113

     occupation numbers 
     1.0000   1.0000   1.0000   1.0000   1.0000   1.0000   1.0000   1.0000
     1.0000   1.0000   1.0000   1.0000   1.0000   1.0000   1.0000   1.0000
     1.0000   1.0000   1.0000   1.0000   1.0000   1.0000   1.0000   1.0000
     1.0000   1.0000   1.0000   1.0000   1.0000   1.0000   1.0000   1.0000
     1.0000   1.0000   1.0000   1.0000   1.0000   1.0000   1.0000   1.0000
     1.0000   1.0000   1.0000   1.0000   1.0000   1.0000   1.0000   1.0000
     1.0000   1.0000   1.0000   1.0000   1.0000   1.0000   1.0000   1.0000
     1.0000   1.0000   0.0064   0.0000   0.0000   0.0000   0.0000   0.0000
     0.0000   0.0000   0.0000   0.0000

          k = 0.2500 0.3536 0.0000 (  4308 PWs)   bands (ev):

   -86.4231 -86.4182 -86.4082 -86.4075 -86.1635 -86.1634 -49.9246 -49.9153
   -49.9135 -49.8961 -49.8918 -49.8834 -49.8713 -49.8626 -49.8568 -49.8507
   -49.8404 -49.8381 -49.6618 -49.6613 -49.6319 -49.6313 -49.6043 -49.6042
    -0.2678  -0.0088   0.0060   0.1217   0.3377   0.3542   0.3817   0.5449
     0.6151   0.7481   0.7902   0.8871   0.9989   1.1531   1.2396   1.2705
     1.3675   1.3807   1.5329   1.5735   1.6618   1.6882   1.7529   1.8206
     1.9699   2.0030   2.1051   2.2821   2.4191   2.4350   2.4680   3.0522
     4.6542   6.5536   6.9505   7.9278   8.7356   9.6066  10.6894  10.7113
    11.7239  11.9194  12.8217  12.9977

     occupation numbers 
     1.0000   1.0000   1.0000   1.0000   1.0000   1.0000   1.0000   1.0000
     1.0000   1.0000   1.0000   1.0000   1.0000   1.0000   1.0000   1.0000
     1.0000   1.0000   1.0000   1.0000   1.0000   1.0000   1.0000   1.0000
     1.0000   1.0000   1.0000   1.0000   1.0000   1.0000   1.0000   1.0000
     1.0000   1.0000   1.0000   1.0000   1.0000   1.0000   1.0000   1.0000
     1.0000   1.0000   1.0000   1.0000   1.0000   1.0000   1.0000   1.0000
     1.0000   1.0000   1.0000   1.0000   1.0000   1.0000   1.0000   1.0000
     1.0000   0.0000   0.0000   0.0000   0.0000   0.0000   0.0000   0.0000
     0.0000   0.0000   0.0000   0.0000

          k = 0.2500-0.7071 0.0000 (  4342 PWs)   bands (ev):

   -86.4182 -86.4181 -86.4061 -86.4058 -86.1613 -86.1613 -49.9394 -49.9394
   -49.9306 -49.9304 -49.8841 -49.8840 -49.8708 -49.8707 -49.8633 -49.8631
   -49.8420 -49.8418 -49.6942 -49.6941 -49.6298 -49.6297 -49.6027 -49.6026
    -0.2271  -0.2270  -0.1883  -0.1882  -0.0674  -0.0673   0.3992   0.3993
     0.5192   0.5192   0.9513   0.9513   1.1463   1.1463   1.4386   1.4387
     1.6731   1.6731   1.7042   1.7043   2.0707   2.0708   2.1342   2.1343
     2.3251   2.3251   2.5404   2.5404   2.5889   2.5890   5.3979   5.3979
     6.5409   6.5409   8.0064   8.0064  10.0383  10.0383  10.8167  10.8167
    11.5357  11.5357  12.7846  12.7846

     occupation numbers 
     1.0000   1.0000   1.0000   1.0000   1.0000   1.0000   1.0000   1.0000
     1.0000   1.0000   1.0000   1.0000   1.0000   1.0000   1.0000   1.0000
     1.0000   1.0000   1.0000   1.0000   1.0000   1.0000   1.0000   1.0000
     1.0000   1.0000   1.0000   1.0000   1.0000   1.0000   1.0000   1.0000
     1.0000   1.0000   1.0000   1.0000   1.0000   1.0000   1.0000   1.0000
     1.0000   1.0000   1.0000   1.0000   1.0000   1.0000   1.0000   1.0000
     1.0000   1.0000   1.0000   1.0000   1.0000   1.0000   0.4969   0.4966
     0.0000   0.0000   0.0000   0.0000   0.0000   0.0000   0.0000   0.0000
     0.0000   0.0000   0.0000   0.0000

          k =-0.5000 0.0000 0.0000 (  4318 PWs)   bands (ev):

   -86.4226 -86.4225 -86.4105 -86.4102 -86.1657 -86.1657 -49.9329 -49.9329
   -49.8916 -49.8914 -49.8548 -49.8547 -49.8510 -49.8507 -49.8483 -49.8482
   -49.8424 -49.8422 -49.6337 -49.6336 -49.6299 -49.6299 -49.6072 -49.6071
    -0.4689  -0.4689  -0.1736  -0.1735   0.2169   0.2169   0.4006   0.4006
     0.8261   0.8262   0.9599   0.9599   0.9880   0.9880   1.3125   1.3125
     1.4244   1.4245   1.5004   1.5005   1.7444   1.7444   2.2121   2.2121
     2.2464   2.2464   2.4001   2.4001   2.4030   2.4030   2.5119   2.5119
     3.3916   3.3916   5.1234   5.1235   6.7861   6.7861  10.1662  10.1662
    11.3428  11.3430  11.4690  11.4701

     occupation numbers 
     1.0000   1.0000   1.0000   1.0000   1.0000   1.0000   1.0000   1.0000
     1.0000   1.0000   1.0000   1.0000   1.0000   1.0000   1.0000   1.0000
     1.0000   1.0000   1.0000   1.0000   1.0000   1.0000   1.0000   1.0000
     1.0000   1.0000   1.0000   1.0000   1.0000   1.0000   1.0000   1.0000
     1.0000   1.0000   1.0000   1.0000   1.0000   1.0000   1.0000   1.0000
     1.0000   1.0000   1.0000   1.0000   1.0000   1.0000   1.0000   1.0000
     1.0000   1.0000   1.0000   1.0000   1.0000   1.0000   1.0000   1.0000
     1.0000   1.0000   1.0000   1.0000   0.0000   0.0000   0.0000   0.0000
     0.0000   0.0000   0.0000   0.0000

          k =-0.5000 0.3536 0.0000 (  4304 PWs)   bands (ev):

   -86.4203 -86.4203 -86.4083 -86.4080 -86.1635 -86.1634 -49.9218 -49.9218
   -49.9111 -49.9110 -49.8861 -49.8859 -49.8617 -49.8617 -49.8528 -49.8528
   -49.8393 -49.8391 -49.6612 -49.6611 -49.6316 -49.6316 -49.6040 -49.6039
     0.0411   0.0412   0.1804   0.1805   0.5016   0.5016   0.6700   0.6700
     0.7932   0.7932   0.9121   0.9121   1.0814   1.0815   1.1903   1.1903
     1.3331   1.3332   1.5138   1.5139   1.5297   1.5297   1.5940   1.5940
     1.8897   1.8898   2.1286   2.1287   2.2878   2.2878   3.7344   3.7345
     4.8909   4.8909   6.6734   6.6734   8.3967   8.3967  11.0549  11.0549
    12.3914  12.3916  12.5233  12.5245

     occupation numbers 
     1.0000   1.0000   1.0000   1.0000   1.0000   1.0000   1.0000   1.0000
     1.0000   1.0000   1.0000   1.0000   1.0000   1.0000   1.0000   1.0000
     1.0000   1.0000   1.0000   1.0000   1.0000   1.0000   1.0000   1.0000
     1.0000   1.0000   1.0000   1.0000   1.0000   1.0000   1.0000   1.0000
     1.0000   1.0000   1.0000   1.0000   1.0000   1.0000   1.0000   1.0000
     1.0000   1.0000   1.0000   1.0000   1.0000   1.0000   1.0000   1.0000
     1.0000   1.0000   1.0000   1.0000   1.0000   1.0000   1.0000   1.0000
     1.0000   1.0000   0.0000   0.0000   0.0000   0.0000   0.0000   0.0000
     0.0000   0.0000   0.0000   0.0000

          k =-0.5000-0.7071 0.0000 (  4376 PWs)   bands (ev):

   -86.4182 -86.4181 -86.4061 -86.4058 -86.1613 -86.1612 -49.9483 -49.9483
   -49.9248 -49.9246 -49.8916 -49.8915 -49.8703 -49.8701 -49.8541 -49.8541
   -49.8432 -49.8430 -49.6936 -49.6935 -49.6305 -49.6304 -49.6017 -49.6016
    -0.3606  -0.3606   0.2049   0.2050   0.2278   0.2279   0.5634   0.5635
     0.7773   0.7774   0.7859   0.7860   0.9314   0.9314   1.0395   1.0395
     1.5451   1.5452   1.5667   1.5668   1.8862   1.8863   2.2196   2.2197
     2.4728   2.4729   2.5138   2.5138   2.5793   2.5794   5.9122   5.9122
     7.6574   7.6575   8.8745   8.8745   9.3263   9.3263   9.7799   9.7799
    10.4446  10.4446  11.8449  11.8450

     occupation numbers 
     1.0000   1.0000   1.0000   1.0000   1.0000   1.0000   1.0000   1.0000
     1.0000   1.0000   1.0000   1.0000   1.0000   1.0000   1.0000   1.0000
     1.0000   1.0000   1.0000   1.0000   1.0000   1.0000   1.0000   1.0000
     1.0000   1.0000   1.0000   1.0000   1.0000   1.0000   1.0000   1.0000
     1.0000   1.0000   1.0000   1.0000   1.0000   1.0000   1.0000   1.0000
     1.0000   1.0000   1.0000   1.0000   1.0000   1.0000   1.0000   1.0000
     1.0000   1.0000   1.0000   1.0000   1.0000   1.0000   0.0000   0.0000
     0.0000   0.0000   0.0000   0.0000   0.0000   0.0000   0.0000   0.0000
     0.0000   0.0000   0.0000   0.0000

     the Fermi energy is     5.3976 ev

!    total energy              =   -1773.57460692 Ry
     estimated scf accuracy    <       0.00000033 Ry
     smearing contrib. (-TS)   =      -0.00043269 Ry
     internal energy E=F+TS    =   -1773.57417423 Ry

     The total energy is F=E-TS. E is the sum of the following terms:
     one-electron contribution =   -7142.25615814 Ry
     hartree contribution      =    3580.57864320 Ry
     xc contribution           =    -173.66706173 Ry
     ewald contribution        =    1961.77040243 Ry

     convergence has been achieved in  12 iterations

     negative rho (up, down):  9.180E-04 0.000E+00

     Forces acting on atoms (cartesian axes, Ry/au):

     atom    1 type  1   force =     0.00000000    0.00000000    0.01038835
     atom    2 type  1   force =     0.00000000    0.00000000    0.00630273
     atom    3 type  1   force =     0.00000000    0.00000000    0.00817333
     atom    4 type  1   force =     0.00000000    0.00000000   -0.00815307
     atom    5 type  1   force =     0.00000000    0.00000000   -0.00639590
     atom    6 type  1   force =     0.00000000    0.00000000   -0.01031545
     The non-local contrib.  to forces
     atom    1 type  1   force =     0.00000000    0.00000000   -0.26856896
     atom    2 type  1   force =     0.00000000    0.00000000   -0.08926054
     atom    3 type  1   force =     0.00000000    0.00000000    0.02096578
     atom    4 type  1   force =     0.00000000    0.00000000   -0.02098780
     atom    5 type  1   force =     0.00000000    0.00000000    0.08917139
     atom    6 type  1   force =     0.00000000    0.00000000    0.26855397
     The ionic contribution  to forces
     atom    1 type  1   force =    -0.00000000    0.00000000 -256.46892799
     atom    2 type  1   force =    -0.00000000    0.00000000  -54.85162202
     atom    3 type  1   force =    -0.00000000    0.00000000  168.19524399
     atom    4 type  1   force =     0.00000000    0.00000000 -168.19524399
     atom    5 type  1   force =    -0.00000000    0.00000000   54.85162202
     atom    6 type  1   force =    -0.00000000    0.00000000  256.46892799
     The local contribution  to forces
     atom    1 type  1   force =    -0.00000000    0.00000000  256.74485514
     atom    2 type  1   force =    -0.00000000    0.00000000   54.94711548
     atom    3 type  1   force =    -0.00000000   -0.00000000 -168.20498970
     atom    4 type  1   force =     0.00000000    0.00000000  168.20491730
     atom    5 type  1   force =     0.00000000    0.00000000  -54.94650374
     atom    6 type  1   force =     0.00000000    0.00000000 -256.74523467
     The core correction contribution to forces
     atom    1 type  1   force =    -0.00000000    0.00000000    0.00149375
     atom    2 type  1   force =    -0.00000000   -0.00000000    0.00036997
     atom    3 type  1   force =     0.00000000   -0.00000000   -0.00029291
     atom    4 type  1   force =    -0.00000000    0.00000000    0.00029036
     atom    5 type  1   force =     0.00000000   -0.00000000   -0.00036866
     atom    6 type  1   force =     0.00000000    0.00000000   -0.00149150
     The Hubbard contrib.    to forces
     atom    1 type  1   force =     0.00000000    0.00000000    0.00000000
     atom    2 type  1   force =     0.00000000    0.00000000    0.00000000
     atom    3 type  1   force =     0.00000000    0.00000000    0.00000000
     atom    4 type  1   force =     0.00000000    0.00000000    0.00000000
     atom    5 type  1   force =     0.00000000    0.00000000    0.00000000
     atom    6 type  1   force =     0.00000000    0.00000000    0.00000000
     The SCF correction term to forces
     atom    1 type  1   force =     0.00000000   -0.00000000    0.00153853
     atom    2 type  1   force =     0.00000000    0.00000000   -0.00029803
     atom    3 type  1   force =     0.00000000   -0.00000000   -0.00275170
     atom    4 type  1   force =     0.00000000    0.00000000    0.00287320
     atom    5 type  1   force =     0.00000000    0.00000000   -0.00031478
     atom    6 type  1   force =    -0.00000000   -0.00000000   -0.00106911

     Total force =     0.020694     Total SCF correction =     0.004419
     SCF correction compared to forces is large: reduce conv_thr to get better values


     Computing stress (Cartesian axis) and pressure


     negative rho (up, down):  9.180E-04 0.000E+00
          total   stress  (Ry/bohr**3)                   (kbar)     P=      -56.82
  -0.00036426   0.00000000   0.00000000          -53.58        0.00        0.00
   0.00000000  -0.00041665   0.00000000            0.00      -61.29        0.00
   0.00000000   0.00000000  -0.00037790            0.00        0.00      -55.59

     kinetic stress (kbar)  25394.08      0.00      0.00
                                0.00  25326.41      0.00
                                0.00      0.00  25404.77

     local   stress (kbar)-591266.57      0.00     -0.00
                                0.00-597806.96     -0.00
                               -0.00     -0.00 595144.16

     nonloc. stress (kbar)   2970.69      0.00      0.00
                                0.00   2975.68      0.00
                                0.00      0.00   2958.16

     hartree stress (kbar) 307351.70      0.00      0.00
                                0.00 310117.72      0.00
                                0.00      0.00-278747.22

     exc-cor stress (kbar)  -4572.79     -0.00     -0.00
                               -0.00  -4571.43     -0.00
                               -0.00     -0.00  -4575.97

     corecor stress (kbar)   -618.70      0.00      0.00
                                0.00   -618.71      0.00
                                0.00      0.00   -618.66

     ewald   stress (kbar) 260688.01     -0.00      0.00
                               -0.00 264516.00      0.00
                                0.00      0.00-339620.83

     hubbard stress (kbar)      0.00      0.00      0.00
                                0.00      0.00      0.00
                                0.00      0.00      0.00

     DFT-D   stress (kbar)      0.00      0.00      0.00
                                0.00      0.00      0.00
                                0.00      0.00      0.00

     XDM     stress (kbar)      0.00      0.00      0.00
                                0.00      0.00      0.00
                                0.00      0.00      0.00

     dft-nl  stress (kbar)      0.00      0.00      0.00
                                0.00      0.00      0.00
                                0.00      0.00      0.00

     TS-vdW  stress (kbar)      0.00      0.00      0.00
                                0.00      0.00      0.00
                                0.00      0.00      0.00



     BFGS Geometry Optimization
     Energy error            =      0.0E+00
     Gradient error          =      1.0E-02

     number of scf cycles    =   1
     number of bfgs steps    =   0

     energy   new            =   -1773.5746069211 Ry

     new trust radius        =       0.0103883466 bohr
     new conv_thr            =       0.0000010000 Ry


ATOMIC_POSITIONS (angstrom)
Ag            0.0000000000        0.0000000000        0.0054972763
Ag            0.0000000000        0.0000000000        2.9452852630
Ag            0.0000000000        0.0000000000        5.8882251400
Ag            2.0802750000        1.4709750000        1.4666605829
Ag            2.0802750000        1.4709750000        4.4095404373
Ag            2.0802750000        1.4709750000        7.3494163005



     Writing output data file ./surface.save/
     NEW-OLD atomic charge density approx. for the potential

     negative rho (up, down):  9.205E-04 0.000E+00

     total cpu time spent up to now is       12.0 secs

     Self-consistent Calculation

     iteration #  1     ecut=    30.00 Ry     beta= 0.30
     Davidson diagonalization with overlap
     ethr =  1.00E-06,  avg # of iterations =  4.0

     Threshold (ethr) on eigenvalues was too large:
     Diagonalizing with lowered threshold

     Davidson diagonalization with overlap
     ethr =  5.63E-08,  avg # of iterations =  1.3

     negative rho (up, down):  9.223E-04 0.000E+00

     total cpu time spent up to now is       13.8 secs

     total energy              =   -1773.57500575 Ry
     estimated scf accuracy    <       0.00006386 Ry

     iteration #  2     ecut=    30.00 Ry     beta= 0.30
     Davidson diagonalization with overlap
     ethr =  5.60E-08,  avg # of iterations =  2.0

     negative rho (up, down):  9.215E-04 0.000E+00

     total cpu time spent up to now is       14.6 secs

     total energy              =   -1773.57500998 Ry
     estimated scf accuracy    <       0.00016449 Ry

     iteration #  3     ecut=    30.00 Ry     beta= 0.30
     Davidson diagonalization with overlap
     ethr =  5.60E-08,  avg # of iterations =  2.0

     negative rho (up, down):  9.216E-04 0.000E+00

     total cpu time spent up to now is       15.3 secs

     total energy              =   -1773.57502541 Ry
     estimated scf accuracy    <       0.00000942 Ry

     iteration #  4     ecut=    30.00 Ry     beta= 0.30
     Davidson diagonalization with overlap
     ethr =  8.26E-09,  avg # of iterations =  1.0

     negative rho (up, down):  9.222E-04 0.000E+00

     total cpu time spent up to now is       15.9 secs

     total energy              =   -1773.57502597 Ry
     estimated scf accuracy    <       0.00001282 Ry

     iteration #  5     ecut=    30.00 Ry     beta= 0.30
     Davidson diagonalization with overlap
     ethr =  8.26E-09,  avg # of iterations =  1.0

     negative rho (up, down):  9.224E-04 0.000E+00

     total cpu time spent up to now is       16.6 secs

     End of self-consistent calculation

          k = 0.0000 0.0000 0.0000 (  4295 PWs)   bands (ev):

   -86.4297 -86.4205 -86.4122 -86.4116 -86.1709 -86.1707 -49.9368 -49.9042
   -49.9024 -49.8984 -49.8765 -49.8651 -49.8612 -49.8577 -49.8447 -49.8393
   -49.8368 -49.8352 -49.6402 -49.6396 -49.6337 -49.6333 -49.6118 -49.6110
    -1.5253  -0.5071  -0.4625  -0.2277  -0.1233   0.2859   0.2957   0.5453
     0.6146   0.6334   0.8511   0.9548   0.9677   0.9863   1.1366   1.2598
     1.2749   1.2873   1.5322   1.5334   1.7049   1.7435   1.7638   1.8187
     1.8372   2.1106   2.1309   2.1517   2.3844   2.4269   2.4785   2.6508
     3.1683   4.9532   6.9769   7.8306   8.9145   9.1209   9.6746  11.1882
    11.6912  12.0086  12.0693  12.6397

     occupation numbers 
     1.0000   1.0000   1.0000   1.0000   1.0000   1.0000   1.0000   1.0000
     1.0000   1.0000   1.0000   1.0000   1.0000   1.0000   1.0000   1.0000
     1.0000   1.0000   1.0000   1.0000   1.0000   1.0000   1.0000   1.0000
     1.0000   1.0000   1.0000   1.0000   1.0000   1.0000   1.0000   1.0000
     1.0000   1.0000   1.0000   1.0000   1.0000   1.0000   1.0000   1.0000
     1.0000   1.0000   1.0000   1.0000   1.0000   1.0000   1.0000   1.0000
     1.0000   1.0000   1.0000   1.0000   1.0000   1.0000   1.0000   1.0000
     1.0000   1.0000   0.0000   0.0000   0.0000   0.0000   0.0000   0.0000
     0.0000   0.0000   0.0000   0.0000

          k = 0.0000 0.3536 0.0000 (  4324 PWs)   bands (ev):

   -86.4256 -86.4187 -86.4109 -86.4100 -86.1687 -86.1685 -49.9175 -49.9159
   -49.9142 -49.9007 -49.8930 -49.8814 -49.8743 -49.8678 -49.8671 -49.8501
   -49.8481 -49.8396 -49.6675 -49.6669 -49.6374 -49.6364 -49.6108 -49.6101
    -0.5026  -0.1400  -0.0388  -0.0254   0.0445   0.0668   0.2443   0.4251
     0.5841   0.6120   0.6932   0.8609   1.0179   1.1544   1.2267   1.3086
     1.5889   1.5958   1.6121   1.6755   1.7014   1.8638   1.9171   1.9407
     2.0707   2.1072   2.1716   2.2250   2.2605   2.3340   2.6039   2.6292
     3.8634   6.0151   8.1219   9.9909  10.0642  10.1998  10.9421  11.3741
    12.0465  12.1420  12.6499  12.6852

     occupation numbers 
     1.0000   1.0000   1.0000   1.0000   1.0000   1.0000   1.0000   1.0000
     1.0000   1.0000   1.0000   1.0000   1.0000   1.0000   1.0000   1.0000
     1.0000   1.0000   1.0000   1.0000   1.0000   1.0000   1.0000   1.0000
     1.0000   1.0000   1.0000   1.0000   1.0000   1.0000   1.0000   1.0000
     1.0000   1.0000   1.0000   1.0000   1.0000   1.0000   1.0000   1.0000
     1.0000   1.0000   1.0000   1.0000   1.0000   1.0000   1.0000   1.0000
     1.0000   1.0000   1.0000   1.0000   1.0000   1.0000   1.0000   1.0000
     1.0000   0.0000   0.0000   0.0000   0.0000   0.0000   0.0000   0.0000
     0.0000   0.0000   0.0000   0.0000

          k = 0.0000-0.7071 0.0000 (  4298 PWs)   bands (ev):

   -86.4193 -86.4191 -86.4092 -86.4087 -86.1666 -86.1663 -49.9404 -49.9403
   -49.9257 -49.9254 -49.8789 -49.8788 -49.8758 -49.8754 -49.8739 -49.8738
   -49.8452 -49.8447 -49.7001 -49.6999 -49.6339 -49.6337 -49.6090 -49.6088
    -0.4443  -0.4442  -0.3516  -0.3515   0.1095   0.1096   0.1304   0.1304
     0.7192   0.7195   0.7297   0.7298   0.9551   0.9552   1.6201   1.6201
     1.6833   1.6834   1.9439   1.9440   2.2092   2.2094   2.3318   2.3318
     2.3712   2.3713   2.5432   2.5433   2.6146   2.6147   5.0975   5.0975
     5.8399   5.8399   7.0168   7.0169   9.5312   9.5313  12.4296  12.4296
    13.6351  13.6364  13.6712  13.6712

     occupation numbers 
     1.0000   1.0000   1.0000   1.0000   1.0000   1.0000   1.0000   1.0000
     1.0000   1.0000   1.0000   1.0000   1.0000   1.0000   1.0000   1.0000
     1.0000   1.0000   1.0000   1.0000   1.0000   1.0000   1.0000   1.0000
     1.0000   1.0000   1.0000   1.0000   1.0000   1.0000   1.0000   1.0000
     1.0000   1.0000   1.0000   1.0000   1.0000   1.0000   1.0000   1.0000
     1.0000   1.0000   1.0000   1.0000   1.0000   1.0000   1.0000   1.0000
     1.0000   1.0000   1.0000   1.0000   1.0000   1.0000   1.0000   1.0000
     0.0000   0.0000   0.0000   0.0000   0.0000   0.0000   0.0000   0.0000
     0.0000   0.0000   0.0000   0.0000

          k = 0.2500 0.0000 0.0000 (  4310 PWs)   bands (ev):

   -86.4278 -86.4208 -86.4131 -86.4122 -86.1709 -86.1707 -49.9303 -49.9279
   -49.9088 -49.8740 -49.8697 -49.8678 -49.8587 -49.8539 -49.8484 -49.8422
   -49.8416 -49.8377 -49.6396 -49.6394 -49.6346 -49.6343 -49.6114 -49.6111
    -0.9888  -0.4416  -0.3014  -0.2287  -0.0833   0.0510   0.1838   0.6148
     0.7420   0.7672   0.9531   1.0413   1.0587   1.0587   1.2032   1.2112
     1.3158   1.4361   1.4732   1.6856   1.7288   1.8234   1.8521   1.9083
     2.0097   2.0264   2.1197   2.1997   2.3059   2.4040   2.5050   2.5488
     3.3574   5.0352   5.4695   6.6144   7.3077   8.2096   9.5977   9.7499
    11.0783  11.9091  12.3437  12.8185

     occupation numbers 
     1.0000   1.0000   1.0000   1.0000   1.0000   1.0000   1.0000   1.0000
     1.0000   1.0000   1.0000   1.0000   1.0000   1.0000   1.0000   1.0000
     1.0000   1.0000   1.0000   1.0000   1.0000   1.0000   1.0000   1.0000
     1.0000   1.0000   1.0000   1.0000   1.0000   1.0000   1.0000   1.0000
     1.0000   1.0000   1.0000   1.0000   1.0000   1.0000   1.0000   1.0000
     1.0000   1.0000   1.0000   1.0000   1.0000   1.0000   1.0000   1.0000
     1.0000   1.0000   1.0000   1.0000   1.0000   1.0000   1.0000   1.0000
     1.0000   1.0000   0.0049   0.0000   0.0000   0.0000   0.0000   0.0000
     0.0000   0.0000   0.0000   0.0000

          k = 0.2500 0.3536 0.0000 (  4308 PWs)   bands (ev):

   -86.4243 -86.4192 -86.4112 -86.4103 -86.1687 -86.1685 -49.9259 -49.9166
   -49.9149 -49.8981 -49.8937 -49.8858 -49.8735 -49.8644 -49.8589 -49.8531
   -49.8423 -49.8407 -49.6669 -49.6663 -49.6369 -49.6362 -49.6099 -49.6096
    -0.2705  -0.0125   0.0045   0.1189   0.3360   0.3528   0.3770   0.5405
     0.6097   0.7412   0.7840   0.8829   0.9944   1.1420   1.2301   1.2687
     1.3609   1.3728   1.5277   1.5716   1.6624   1.6839   1.7486   1.8204
     1.9706   2.0030   2.1051   2.2817   2.4181   2.4324   2.4675   3.0483
     4.6522   6.5581   6.9501   7.9248   8.7419   9.6037  10.6956  10.7152
    11.7213  11.9238  12.8189  13.0022

     occupation numbers 
     1.0000   1.0000   1.0000   1.0000   1.0000   1.0000   1.0000   1.0000
     1.0000   1.0000   1.0000   1.0000   1.0000   1.0000   1.0000   1.0000
     1.0000   1.0000   1.0000   1.0000   1.0000   1.0000   1.0000   1.0000
     1.0000   1.0000   1.0000   1.0000   1.0000   1.0000   1.0000   1.0000
     1.0000   1.0000   1.0000   1.0000   1.0000   1.0000   1.0000   1.0000
     1.0000   1.0000   1.0000   1.0000   1.0000   1.0000   1.0000   1.0000
     1.0000   1.0000   1.0000   1.0000   1.0000   1.0000   1.0000   1.0000
     1.0000   0.0000   0.0000   0.0000   0.0000   0.0000   0.0000   0.0000
     0.0000   0.0000   0.0000   0.0000

          k = 0.2500-0.7071 0.0000 (  4342 PWs)   bands (ev):

   -86.4193 -86.4191 -86.4092 -86.4087 -86.1666 -86.1663 -49.9407 -49.9406
   -49.9331 -49.9326 -49.8858 -49.8857 -49.8731 -49.8730 -49.8647 -49.8647
   -49.8448 -49.8443 -49.6992 -49.6989 -49.6348 -49.6346 -49.6083 -49.6080
    -0.2292  -0.2290  -0.1886  -0.1884  -0.0732  -0.0730   0.3918   0.3918
     0.5127   0.5129   0.9413   0.9414   1.1440   1.1440   1.4365   1.4366
     1.6699   1.6700   1.7032   1.7033   2.0691   2.0692   2.1314   2.1314
     2.3225   2.3226   2.5387   2.5387   2.5875   2.5875   5.3952   5.3952
     6.5361   6.5361   8.0034   8.0035  10.0444  10.0445  10.8142  10.8143
    11.5328  11.5328  12.7964  12.7964

     occupation numbers 
     1.0000   1.0000   1.0000   1.0000   1.0000   1.0000   1.0000   1.0000
     1.0000   1.0000   1.0000   1.0000   1.0000   1.0000   1.0000   1.0000
     1.0000   1.0000   1.0000   1.0000   1.0000   1.0000   1.0000   1.0000
     1.0000   1.0000   1.0000   1.0000   1.0000   1.0000   1.0000   1.0000
     1.0000   1.0000   1.0000   1.0000   1.0000   1.0000   1.0000   1.0000
     1.0000   1.0000   1.0000   1.0000   1.0000   1.0000   1.0000   1.0000
     1.0000   1.0000   1.0000   1.0000   1.0000   1.0000   0.4976   0.4975
     0.0000   0.0000   0.0000   0.0000   0.0000   0.0000   0.0000   0.0000
     0.0000   0.0000   0.0000   0.0000

          k =-0.5000 0.0000 0.0000 (  4318 PWs)   bands (ev):

   -86.4237 -86.4235 -86.4136 -86.4131 -86.1710 -86.1708 -49.9343 -49.9343
   -49.8936 -49.8934 -49.8562 -49.8561 -49.8535 -49.8532 -49.8502 -49.8500
   -49.8452 -49.8448 -49.6386 -49.6384 -49.6351 -49.6349 -49.6127 -49.6124
    -0.4712  -0.4712  -0.1774  -0.1773   0.2103   0.2106   0.3961   0.3961
     0.8238   0.8240   0.9578   0.9578   0.9826   0.9827   1.3083   1.3084
     1.4236   1.4236   1.4934   1.4934   1.7347   1.7349   2.2123   2.2124
     2.2476   2.2476   2.3983   2.3985   2.4022   2.4023   2.5101   2.5103
     3.3878   3.3878   5.1153   5.1155   6.7944   6.7946  10.1718  10.1720
    11.3479  11.3483  11.4730  11.4740

     occupation numbers 
     1.0000   1.0000   1.0000   1.0000   1.0000   1.0000   1.0000   1.0000
     1.0000   1.0000   1.0000   1.0000   1.0000   1.0000   1.0000   1.0000
     1.0000   1.0000   1.0000   1.0000   1.0000   1.0000   1.0000   1.0000
     1.0000   1.0000   1.0000   1.0000   1.0000   1.0000   1.0000   1.0000
     1.0000   1.0000   1.0000   1.0000   1.0000   1.0000   1.0000   1.0000
     1.0000   1.0000   1.0000   1.0000   1.0000   1.0000   1.0000   1.0000
     1.0000   1.0000   1.0000   1.0000   1.0000   1.0000   1.0000   1.0000
     1.0000   1.0000   1.0000   1.0000   0.0000   0.0000   0.0000   0.0000
     0.0000   0.0000   0.0000   0.0000

          k =-0.5000 0.3536 0.0000 (  4304 PWs)   bands (ev):

   -86.4215 -86.4212 -86.4114 -86.4108 -86.1687 -86.1685 -49.9232 -49.9231
   -49.9127 -49.9124 -49.8887 -49.8883 -49.8640 -49.8639 -49.8545 -49.8544
   -49.8418 -49.8414 -49.6663 -49.6660 -49.6367 -49.6364 -49.6095 -49.6093
     0.0386   0.0386   0.1780   0.1780   0.4994   0.4995   0.6661   0.6661
     0.7874   0.7875   0.9069   0.9071   1.0782   1.0783   1.1822   1.1823
     1.3289   1.3291   1.5142   1.5143   1.5260   1.5262   1.5863   1.5864
     1.8890   1.8892   2.1264   2.1264   2.2862   2.2863   3.7321   3.7322
     4.8878   4.8878   6.6709   6.6710   8.4020   8.4021  11.0610  11.0611
    12.3968  12.3972  12.5275  12.5287

     occupation numbers 
     1.0000   1.0000   1.0000   1.0000   1.0000   1.0000   1.0000   1.0000
     1.0000   1.0000   1.0000   1.0000   1.0000   1.0000   1.0000   1.0000
     1.0000   1.0000   1.0000   1.0000   1.0000   1.0000   1.0000   1.0000
     1.0000   1.0000   1.0000   1.0000   1.0000   1.0000   1.0000   1.0000
     1.0000   1.0000   1.0000   1.0000   1.0000   1.0000   1.0000   1.0000
     1.0000   1.0000   1.0000   1.0000   1.0000   1.0000   1.0000   1.0000
     1.0000   1.0000   1.0000   1.0000   1.0000   1.0000   1.0000   1.0000
     1.0000   1.0000   0.0000   0.0000   0.0000   0.0000   0.0000   0.0000
     0.0000   0.0000   0.0000   0.0000

          k =-0.5000-0.7071 0.0000 (  4376 PWs)   bands (ev):

   -86.4193 -86.4191 -86.4092 -86.4087 -86.1666 -86.1663 -49.9497 -49.9497
   -49.9270 -49.9267 -49.8929 -49.8928 -49.8732 -49.8729 -49.8556 -49.8555
   -49.8459 -49.8454 -49.6985 -49.6983 -49.6356 -49.6353 -49.6072 -49.6070
    -0.3630  -0.3629   0.2008   0.2009   0.2258   0.2258   0.5609   0.5610
     0.7672   0.7675   0.7838   0.7840   0.9275   0.9276   1.0372   1.0373
     1.5390   1.5390   1.5633   1.5635   1.8823   1.8825   2.2157   2.2157
     2.4709   2.4711   2.5120   2.5122   2.5773   2.5773   5.9087   5.9087
     7.6512   7.6512   8.8727   8.8728   9.3260   9.3261   9.7754   9.7754
    10.4451  10.4451  11.8448  11.8449

     occupation numbers 
     1.0000   1.0000   1.0000   1.0000   1.0000   1.0000   1.0000   1.0000
     1.0000   1.0000   1.0000   1.0000   1.0000   1.0000   1.0000   1.0000
     1.0000   1.0000   1.0000   1.0000   1.0000   1.0000   1.0000   1.0000
     1.0000   1.0000   1.0000   1.0000   1.0000   1.0000   1.0000   1.0000
     1.0000   1.0000   1.0000   1.0000   1.0000   1.0000   1.0000   1.0000
     1.0000   1.0000   1.0000   1.0000   1.0000   1.0000   1.0000   1.0000
     1.0000   1.0000   1.0000   1.0000   1.0000   1.0000   0.0000   0.0000
     0.0000   0.0000   0.0000   0.0000   0.0000   0.0000   0.0000   0.0000
     0.0000   0.0000   0.0000   0.0000

     the Fermi energy is     5.3950 ev

!    total energy              =   -1773.57502676 Ry
     estimated scf accuracy    <       0.00000039 Ry
     smearing contrib. (-TS)   =      -0.00043072 Ry
     internal energy E=F+TS    =   -1773.57459604 Ry

     The total energy is F=E-TS. E is the sum of the following terms:
     one-electron contribution =   -7148.78108345 Ry
     hartree contribution      =    3583.84654682 Ry
     xc contribution           =    -173.66851334 Ry
     ewald contribution        =    1965.02845393 Ry

     convergence has been achieved in   5 iterations

     negative rho (up, down):  9.224E-04 0.000E+00

     Forces acting on atoms (cartesian axes, Ry/au):

     atom    1 type  1   force =     0.00000000    0.00000000    0.00998777
     atom    2 type  1   force =     0.00000000    0.00000000    0.00615776
     atom    3 type  1   force =     0.00000000    0.00000000    0.00793877
     atom    4 type  1   force =     0.00000000    0.00000000   -0.00794766
     atom    5 type  1   force =     0.00000000    0.00000000   -0.00596714
     atom    6 type  1   force =     0.00000000    0.00000000   -0.01016949
     The non-local contrib.  to forces
     atom    1 type  1   force =     0.00000000    0.00000000   -0.26908237
     atom    2 type  1   force =     0.00000000    0.00000000   -0.09021568
     atom    3 type  1   force =     0.00000000    0.00000000    0.01931741
     atom    4 type  1   force =     0.00000000    0.00000000   -0.01919752
     atom    5 type  1   force =     0.00000000    0.00000000    0.09047719
     atom    6 type  1   force =     0.00000000    0.00000000    0.26908259
     The ionic contribution  to forces
     atom    1 type  1   force =    -0.00000000   -0.00000000 -256.55209478
     atom    2 type  1   force =    -0.00000000   -0.00000000  -54.63333523
     atom    3 type  1   force =    -0.00000000   -0.00000000  168.41867042
     atom    4 type  1   force =     0.00000000    0.00000000 -168.41877198
     atom    5 type  1   force =    -0.00000000    0.00000000   54.63558346
     atom    6 type  1   force =    -0.00000000    0.00000000  256.54994811
     The local contribution  to forces
     atom    1 type  1   force =     0.00000000   -0.00000000  256.82854428
     atom    2 type  1   force =    -0.00000000    0.00000000   54.72791536
     atom    3 type  1   force =    -0.00000000   -0.00000000 -168.43024284
     atom    4 type  1   force =     0.00000000    0.00000000  168.42967802
     atom    5 type  1   force =     0.00000000    0.00000000  -54.73209939
     atom    6 type  1   force =     0.00000000    0.00000000 -256.82607317
     The core correction contribution to forces
     atom    1 type  1   force =     0.00000000   -0.00000000    0.00149713
     atom    2 type  1   force =    -0.00000000    0.00000000    0.00037263
     atom    3 type  1   force =    -0.00000000    0.00000000   -0.00028945
     atom    4 type  1   force =    -0.00000000    0.00000000    0.00028670
     atom    5 type  1   force =    -0.00000000   -0.00000000   -0.00037187
     atom    6 type  1   force =     0.00000000   -0.00000000   -0.00149461
     The Hubbard contrib.    to forces
     atom    1 type  1   force =     0.00000000    0.00000000    0.00000000
     atom    2 type  1   force =     0.00000000    0.00000000    0.00000000
     atom    3 type  1   force =     0.00000000    0.00000000    0.00000000
     atom    4 type  1   force =     0.00000000    0.00000000    0.00000000
     atom    5 type  1   force =     0.00000000    0.00000000    0.00000000
     atom    6 type  1   force =     0.00000000    0.00000000    0.00000000
     The SCF correction term to forces
     atom    1 type  1   force =     0.00000000   -0.00000000    0.00120464
     atom    2 type  1   force =     0.00000000   -0.00000000    0.00150181
     atom    3 type  1   force =    -0.00000000   -0.00000000    0.00056436
     atom    4 type  1   force =     0.00000000   -0.00000000    0.00013825
     atom    5 type  1   force =    -0.00000000   -0.00000000    0.00052460
     atom    6 type  1   force =     0.00000000   -0.00000000   -0.00155128

     Total force =     0.020072     Total SCF correction =     0.002593
     SCF correction compared to forces is large: reduce conv_thr to get better values


     Computing stress (Cartesian axis) and pressure


     negative rho (up, down):  9.224E-04 0.000E+00
          total   stress  (Ry/bohr**3)                   (kbar)     P=      -55.60
  -0.00035590   0.00000000   0.00000000          -52.35        0.00        0.00
   0.00000000  -0.00040936   0.00000000            0.00      -60.22        0.00
   0.00000000   0.00000000  -0.00036869            0.00        0.00      -54.24

     kinetic stress (kbar)  25393.85      0.00      0.00
                                0.00  25326.47      0.00
                                0.00      0.00  25405.51

     local   stress (kbar)-591996.18     -0.00     -0.00
                               -0.00-598449.71      0.00
                               -0.00      0.00 595899.08

     nonloc. stress (kbar)   2971.85      0.00      0.00
                                0.00   2976.84      0.00
                                0.00      0.00   2959.11

     hartree stress (kbar) 307707.19     -0.00      0.00
                               -0.00 310436.93      0.00
                                0.00      0.00-279112.79

     exc-cor stress (kbar)  -4572.80     -0.00     -0.00
                               -0.00  -4571.46      0.00
                               -0.00      0.00  -4576.03

     corecor stress (kbar)   -618.70      0.00     -0.00
                                0.00   -618.71      0.00
                               -0.00      0.00   -618.66

     ewald   stress (kbar) 261062.44     -0.00     -0.00
                               -0.00 264839.42     -0.00
                               -0.00     -0.00-340010.47

     hubbard stress (kbar)      0.00      0.00      0.00
                                0.00      0.00      0.00
                                0.00      0.00      0.00

     DFT-D   stress (kbar)      0.00      0.00      0.00
                                0.00      0.00      0.00
                                0.00      0.00      0.00

     XDM     stress (kbar)      0.00      0.00      0.00
                                0.00      0.00      0.00
                                0.00      0.00      0.00

     dft-nl  stress (kbar)      0.00      0.00      0.00
                                0.00      0.00      0.00
                                0.00      0.00      0.00

     TS-vdW  stress (kbar)      0.00      0.00      0.00
                                0.00      0.00      0.00
                                0.00      0.00      0.00


     Energy error            =      4.2E-04
     Gradient error          =      1.0E-02

     number of scf cycles    =   2
     number of bfgs steps    =   1

     energy   old            =   -1773.5746069211 Ry
     energy   new            =   -1773.5750267592 Ry

     CASE: energy  _new < energy  _old


     WARNING: bfgs curvature condition failed, Theta= 0.825
     new trust radius        =       0.0114271812 bohr
     new conv_thr            =       0.0000000420 Ry


ATOMIC_POSITIONS (angstrom)
Ag            0.0000000000        0.0000000000        0.0115225965
Ag            0.0000000000        0.0000000000        2.9489658072
Ag            0.0000000000        0.0000000000        5.8929862099
Ag            2.0802750000        1.4709750000        1.4619040584
Ag            2.0802750000        1.4709750000        4.4058770314
Ag            2.0802750000        1.4709750000        7.3433692966



     Writing output data file ./surface.save/
     NEW-OLD atomic charge density approx. for the potential

     negative rho (up, down):  9.246E-04 0.000E+00

     total cpu time spent up to now is       17.6 secs

     Self-consistent Calculation

     iteration #  1     ecut=    30.00 Ry     beta= 0.30
     Davidson diagonalization with overlap
     ethr =  1.00E-06,  avg # of iterations =  4.0

     Threshold (ethr) on eigenvalues was too large:
     Diagonalizing with lowered threshold

     Davidson diagonalization with overlap
     ethr =  3.83E-08,  avg # of iterations =  1.7

     negative rho (up, down):  9.260E-04 0.000E+00

     total cpu time spent up to now is       19.5 secs

     total energy              =   -1773.57543990 Ry
     estimated scf accuracy    <       0.00004315 Ry

     iteration #  2     ecut=    30.00 Ry     beta= 0.30
     Davidson diagonalization with overlap
     ethr =  3.78E-08,  avg # of iterations =  2.0

     negative rho (up, down):  9.254E-04 0.000E+00

     total cpu time spent up to now is       20.2 secs

     total energy              =   -1773.57543593 Ry
     estimated scf accuracy    <       0.00019475 Ry

     iteration #  3     ecut=    30.00 Ry     beta= 0.30
     Davidson diagonalization with overlap
     ethr =  3.78E-08,  avg # of iterations =  1.9

     negative rho (up, down):  9.252E-04 0.000E+00

     total cpu time spent up to now is       20.9 secs

     total energy              =   -1773.57545019 Ry
     estimated scf accuracy    <       0.00003903 Ry

     iteration #  4     ecut=    30.00 Ry     beta= 0.30
     Davidson diagonalization with overlap
     ethr =  3.42E-08,  avg # of iterations =  1.0

     negative rho (up, down):  9.260E-04 0.000E+00

     total cpu time spent up to now is       21.6 secs

     total energy              =   -1773.57545302 Ry
     estimated scf accuracy    <       0.00000364 Ry

     iteration #  5     ecut=    30.00 Ry     beta= 0.30
     Davidson diagonalization with overlap
     ethr =  3.19E-09,  avg # of iterations =  1.0

     negative rho (up, down):  9.263E-04 0.000E+00

     total cpu time spent up to now is       22.2 secs

     total energy              =   -1773.57545334 Ry
     estimated scf accuracy    <       0.00000030 Ry

     iteration #  6     ecut=    30.00 Ry     beta= 0.30
     Davidson diagonalization with overlap
     ethr =  2.61E-10,  avg # of iterations =  1.8

     negative rho (up, down):  9.262E-04 0.000E+00

     total cpu time spent up to now is       22.9 secs

     total energy              =   -1773.57545337 Ry
     estimated scf accuracy    <       0.00000005 Ry

     iteration #  7     ecut=    30.00 Ry     beta= 0.30
     Davidson diagonalization with overlap
     ethr =  4.06E-11,  avg # of iterations =  1.9

     negative rho (up, down):  9.257E-04 0.000E+00

     total cpu time spent up to now is       23.6 secs

     End of self-consistent calculation

          k = 0.0000 0.0000 0.0000 (  4295 PWs)   bands (ev):

   -86.4291 -86.4197 -86.4118 -86.4115 -86.1749 -86.1748 -49.9362 -49.9037
   -49.9017 -49.8978 -49.8759 -49.8657 -49.8608 -49.8573 -49.8448 -49.8390
   -49.8364 -49.8347 -49.6437 -49.6433 -49.6376 -49.6372 -49.6161 -49.6154
    -1.5258  -0.5107  -0.4635  -0.2264  -0.1268   0.2791   0.2872   0.5458
     0.6137   0.6351   0.8518   0.9547   0.9675   0.9843   1.1325   1.2578
     1.2711   1.2879   1.5324   1.5336   1.6907   1.7434   1.7588   1.8187
     1.8340   2.1102   2.1282   2.1560   2.3835   2.4248   2.4820   2.6524
     3.1729   4.9547   6.9907   7.8294   8.9228   9.1225   9.6694  11.1957
    11.6918  12.0091  12.0642  12.6382

     occupation numbers 
     1.0000   1.0000   1.0000   1.0000   1.0000   1.0000   1.0000   1.0000
     1.0000   1.0000   1.0000   1.0000   1.0000   1.0000   1.0000   1.0000
     1.0000   1.0000   1.0000   1.0000   1.0000   1.0000   1.0000   1.0000
     1.0000   1.0000   1.0000   1.0000   1.0000   1.0000   1.0000   1.0000
     1.0000   1.0000   1.0000   1.0000   1.0000   1.0000   1.0000   1.0000
     1.0000   1.0000   1.0000   1.0000   1.0000   1.0000   1.0000   1.0000
     1.0000   1.0000   1.0000   1.0000   1.0000   1.0000   1.0000   1.0000
     1.0000   1.0000   0.0000   0.0000   0.0000   0.0000   0.0000   0.0000
     0.0000   0.0000   0.0000   0.0000

          k = 0.0000 0.3536 0.0000 (  4324 PWs)   bands (ev):

   -86.4250 -86.4179 -86.4106 -86.4099 -86.1727 -86.1726 -49.9169 -49.9153
   -49.9137 -49.9002 -49.8924 -49.8813 -49.8734 -49.8675 -49.8674 -49.8498
   -49.8477 -49.8395 -49.6713 -49.6708 -49.6409 -49.6400 -49.6152 -49.6146
    -0.5031  -0.1422  -0.0378  -0.0257   0.0470   0.0640   0.2441   0.4240
     0.5783   0.6042   0.6827   0.8572   1.0075   1.1455   1.2235   1.3033
     1.5908   1.5975   1.6102   1.6767   1.7016   1.8666   1.9137   1.9417
     2.0744   2.1076   2.1767   2.2255   2.2600   2.3291   2.6061   2.6306
     3.8654   6.0217   8.1324   9.9975  10.0641  10.2015  10.9415  11.3717
    12.0439  12.1455  12.6519  12.6871

     occupation numbers 
     1.0000   1.0000   1.0000   1.0000   1.0000   1.0000   1.0000   1.0000
     1.0000   1.0000   1.0000   1.0000   1.0000   1.0000   1.0000   1.0000
     1.0000   1.0000   1.0000   1.0000   1.0000   1.0000   1.0000   1.0000
     1.0000   1.0000   1.0000   1.0000   1.0000   1.0000   1.0000   1.0000
     1.0000   1.0000   1.0000   1.0000   1.0000   1.0000   1.0000   1.0000
     1.0000   1.0000   1.0000   1.0000   1.0000   1.0000   1.0000   1.0000
     1.0000   1.0000   1.0000   1.0000   1.0000   1.0000   1.0000   1.0000
     1.0000   0.0000   0.0000   0.0000   0.0000   0.0000   0.0000   0.0000
     0.0000   0.0000   0.0000   0.0000

          k = 0.0000-0.7071 0.0000 (  4298 PWs)   bands (ev):

   -86.4185 -86.4185 -86.4088 -86.4087 -86.1705 -86.1705 -49.9398 -49.9398
   -49.9252 -49.9252 -49.8782 -49.8782 -49.8754 -49.8754 -49.8734 -49.8733
   -49.8448 -49.8448 -49.7038 -49.7038 -49.6374 -49.6373 -49.6136 -49.6135
    -0.4447  -0.4447  -0.3518  -0.3518   0.1066   0.1066   0.1269   0.1269
     0.7073   0.7074   0.7280   0.7280   0.9460   0.9460   1.6183   1.6184
     1.6891   1.6891   1.9476   1.9476   2.2082   2.2083   2.3341   2.3341
     2.3726   2.3726   2.5423   2.5423   2.6155   2.6155   5.0975   5.0975
     5.8377   5.8378   7.0152   7.0153   9.5400   9.5401  12.4357  12.4360
    13.6389  13.6405  13.6745  13.6746

     occupation numbers 
     1.0000   1.0000   1.0000   1.0000   1.0000   1.0000   1.0000   1.0000
     1.0000   1.0000   1.0000   1.0000   1.0000   1.0000   1.0000   1.0000
     1.0000   1.0000   1.0000   1.0000   1.0000   1.0000   1.0000   1.0000
     1.0000   1.0000   1.0000   1.0000   1.0000   1.0000   1.0000   1.0000
     1.0000   1.0000   1.0000   1.0000   1.0000   1.0000   1.0000   1.0000
     1.0000   1.0000   1.0000   1.0000   1.0000   1.0000   1.0000   1.0000
     1.0000   1.0000   1.0000   1.0000   1.0000   1.0000   1.0000   1.0000
     0.0000   0.0000   0.0000   0.0000   0.0000   0.0000   0.0000   0.0000
     0.0000   0.0000   0.0000   0.0000

          k = 0.2500 0.0000 0.0000 (  4310 PWs)   bands (ev):

   -86.4271 -86.4201 -86.4127 -86.4121 -86.1749 -86.1748 -49.9298 -49.9272
   -49.9083 -49.8740 -49.8691 -49.8669 -49.8583 -49.8540 -49.8484 -49.8416
   -49.8415 -49.8374 -49.6431 -49.6429 -49.6385 -49.6383 -49.6157 -49.6156
    -0.9892  -0.4426  -0.3011  -0.2302  -0.0833   0.0443   0.1760   0.6117
     0.7418   0.7604   0.9528   1.0418   1.0594   1.0600   1.1982   1.2115
     1.3186   1.4328   1.4669   1.6822   1.7230   1.8211   1.8502   1.9054
     2.0098   2.0281   2.1175   2.1989   2.3037   2.4091   2.5051   2.5510
     3.3609   5.0360   5.4715   6.6099   7.3200   8.2094   9.5996   9.7548
    11.0868  11.9141  12.3434  12.8256

     occupation numbers 
     1.0000   1.0000   1.0000   1.0000   1.0000   1.0000   1.0000   1.0000
     1.0000   1.0000   1.0000   1.0000   1.0000   1.0000   1.0000   1.0000
     1.0000   1.0000   1.0000   1.0000   1.0000   1.0000   1.0000   1.0000
     1.0000   1.0000   1.0000   1.0000   1.0000   1.0000   1.0000   1.0000
     1.0000   1.0000   1.0000   1.0000   1.0000   1.0000   1.0000   1.0000
     1.0000   1.0000   1.0000   1.0000   1.0000   1.0000   1.0000   1.0000
     1.0000   1.0000   1.0000   1.0000   1.0000   1.0000   1.0000   1.0000
     1.0000   1.0000   0.0039   0.0000   0.0000   0.0000   0.0000   0.0000
     0.0000   0.0000   0.0000   0.0000

          k = 0.2500 0.3536 0.0000 (  4308 PWs)   bands (ev):

   -86.4236 -86.4184 -86.4109 -86.4102 -86.1727 -86.1726 -49.9253 -49.9161
   -49.9142 -49.8975 -49.8931 -49.8856 -49.8734 -49.8641 -49.8587 -49.8527
   -49.8419 -49.8406 -49.6707 -49.6702 -49.6404 -49.6398 -49.6143 -49.6142
    -0.2711  -0.0144   0.0052   0.1182   0.3363   0.3535   0.3741   0.5381
     0.6063   0.7361   0.7795   0.8809   0.9918   1.1318   1.2218   1.2686
     1.3558   1.3666   1.5240   1.5715   1.6653   1.6817   1.7462   1.8222
     1.9737   2.0053   2.1075   2.2835   2.4190   2.4318   2.4692   3.0465
     4.6522   6.5652   6.9520   7.9238   8.7496   9.6028  10.7011  10.7170
    11.7210  11.9303  12.8182  13.0059

     occupation numbers 
     1.0000   1.0000   1.0000   1.0000   1.0000   1.0000   1.0000   1.0000
     1.0000   1.0000   1.0000   1.0000   1.0000   1.0000   1.0000   1.0000
     1.0000   1.0000   1.0000   1.0000   1.0000   1.0000   1.0000   1.0000
     1.0000   1.0000   1.0000   1.0000   1.0000   1.0000   1.0000   1.0000
     1.0000   1.0000   1.0000   1.0000   1.0000   1.0000   1.0000   1.0000
     1.0000   1.0000   1.0000   1.0000   1.0000   1.0000   1.0000   1.0000
     1.0000   1.0000   1.0000   1.0000   1.0000   1.0000   1.0000   1.0000
     1.0000   0.0000   0.0000   0.0000   0.0000   0.0000   0.0000   0.0000
     0.0000   0.0000   0.0000   0.0000

          k = 0.2500-0.7071 0.0000 (  4342 PWs)   bands (ev):

   -86.4185 -86.4185 -86.4088 -86.4087 -86.1705 -86.1705 -49.9400 -49.9400
   -49.9325 -49.9325 -49.8854 -49.8854 -49.8730 -49.8730 -49.8641 -49.8641
   -49.8443 -49.8443 -49.7028 -49.7027 -49.6383 -49.6382 -49.6127 -49.6126
    -0.2290  -0.2290  -0.1867  -0.1867  -0.0769  -0.0769   0.3860   0.3860
     0.5082   0.5082   0.9323   0.9323   1.1435   1.1435   1.4364   1.4364
     1.6685   1.6685   1.7047   1.7047   2.0690   2.0691   2.1313   2.1313
     2.3218   2.3218   2.5392   2.5392   2.5880   2.5880   5.3948   5.3948
     6.5333   6.5333   8.0026   8.0026  10.0525  10.0525  10.8141  10.8141
    11.5321  11.5321  12.8102  12.8102

     occupation numbers 
     1.0000   1.0000   1.0000   1.0000   1.0000   1.0000   1.0000   1.0000
     1.0000   1.0000   1.0000   1.0000   1.0000   1.0000   1.0000   1.0000
     1.0000   1.0000   1.0000   1.0000   1.0000   1.0000   1.0000   1.0000
     1.0000   1.0000   1.0000   1.0000   1.0000   1.0000   1.0000   1.0000
     1.0000   1.0000   1.0000   1.0000   1.0000   1.0000   1.0000   1.0000
     1.0000   1.0000   1.0000   1.0000   1.0000   1.0000   1.0000   1.0000
     1.0000   1.0000   1.0000   1.0000   1.0000   1.0000   0.4981   0.4980
     0.0000   0.0000   0.0000   0.0000   0.0000   0.0000   0.0000   0.0000
     0.0000   0.0000   0.0000   0.0000

          k =-0.5000 0.0000 0.0000 (  4318 PWs)   bands (ev):

   -86.4229 -86.4229 -86.4132 -86.4131 -86.1750 -86.1749 -49.9338 -49.9337
   -49.8930 -49.8929 -49.8557 -49.8557 -49.8530 -49.8530 -49.8497 -49.8497
   -49.8450 -49.8449 -49.6420 -49.6420 -49.6389 -49.6389 -49.6171 -49.6170
    -0.4714  -0.4714  -0.1790  -0.1790   0.2053   0.2054   0.3933   0.3933
     0.8238   0.8238   0.9577   0.9577   0.9790   0.9790   1.3061   1.3061
     1.4248   1.4248   1.4882   1.4882   1.7262   1.7262   2.2146   2.2146
     2.2512   2.2512   2.3990   2.3990   2.4036   2.4036   2.5106   2.5106
     3.3861   3.3861   5.1090   5.1090   6.8055   6.8056  10.1778  10.1779
    11.3521  11.3523  11.4760  11.4761

     occupation numbers 
     1.0000   1.0000   1.0000   1.0000   1.0000   1.0000   1.0000   1.0000
     1.0000   1.0000   1.0000   1.0000   1.0000   1.0000   1.0000   1.0000
     1.0000   1.0000   1.0000   1.0000   1.0000   1.0000   1.0000   1.0000
     1.0000   1.0000   1.0000   1.0000   1.0000   1.0000   1.0000   1.0000
     1.0000   1.0000   1.0000   1.0000   1.0000   1.0000   1.0000   1.0000
     1.0000   1.0000   1.0000   1.0000   1.0000   1.0000   1.0000   1.0000
     1.0000   1.0000   1.0000   1.0000   1.0000   1.0000   1.0000   1.0000
     1.0000   1.0000   1.0000   1.0000   0.0000   0.0000   0.0000   0.0000
     0.0000   0.0000   0.0000   0.0000

          k =-0.5000 0.3536 0.0000 (  4304 PWs)   bands (ev):

   -86.4207 -86.4206 -86.4109 -86.4109 -86.1727 -86.1727 -49.9226 -49.9226
   -49.9119 -49.9118 -49.8884 -49.8884 -49.8638 -49.8637 -49.8540 -49.8540
   -49.8415 -49.8414 -49.6700 -49.6699 -49.6401 -49.6400 -49.6139 -49.6138
     0.0382   0.0382   0.1775   0.1775   0.4993   0.4994   0.6642   0.6642
     0.7837   0.7837   0.9033   0.9033   1.0770   1.0770   1.1756   1.1756
     1.3270   1.3270   1.5151   1.5151   1.5259   1.5260   1.5800   1.5800
     1.8906   1.8906   2.1260   2.1261   2.2868   2.2868   3.7321   3.7321
     4.8867   4.8867   6.6704   6.6704   8.4098   8.4099  11.0677  11.0678
    12.4013  12.4014  12.5308  12.5310

     occupation numbers 
     1.0000   1.0000   1.0000   1.0000   1.0000   1.0000   1.0000   1.0000
     1.0000   1.0000   1.0000   1.0000   1.0000   1.0000   1.0000   1.0000
     1.0000   1.0000   1.0000   1.0000   1.0000   1.0000   1.0000   1.0000
     1.0000   1.0000   1.0000   1.0000   1.0000   1.0000   1.0000   1.0000
     1.0000   1.0000   1.0000   1.0000   1.0000   1.0000   1.0000   1.0000
     1.0000   1.0000   1.0000   1.0000   1.0000   1.0000   1.0000   1.0000
     1.0000   1.0000   1.0000   1.0000   1.0000   1.0000   1.0000   1.0000
     1.0000   1.0000   0.0000   0.0000   0.0000   0.0000   0.0000   0.0000
     0.0000   0.0000   0.0000   0.0000

          k =-0.5000-0.7071 0.0000 (  4376 PWs)   bands (ev):

   -86.4185 -86.4185 -86.4087 -86.4087 -86.1705 -86.1705 -49.9491 -49.9491
   -49.9264 -49.9264 -49.8923 -49.8922 -49.8734 -49.8733 -49.8551 -49.8551
   -49.8453 -49.8453 -49.7021 -49.7020 -49.6391 -49.6390 -49.6116 -49.6115
    -0.3631  -0.3631   0.1986   0.1986   0.2258   0.2258   0.5607   0.5607
     0.7581   0.7581   0.7846   0.7846   0.9252   0.9252   1.0368   1.0368
     1.5343   1.5343   1.5621   1.5622   1.8804   1.8804   2.2133   2.2133
     2.4715   2.4715   2.5123   2.5123   2.5773   2.5773   5.9074   5.9074
     7.6467   7.6468   8.8732   8.8733   9.3281   9.3282   9.7726   9.7727
    10.4476  10.4476  11.8463  11.8464

     occupation numbers 
     1.0000   1.0000   1.0000   1.0000   1.0000   1.0000   1.0000   1.0000
     1.0000   1.0000   1.0000   1.0000   1.0000   1.0000   1.0000   1.0000
     1.0000   1.0000   1.0000   1.0000   1.0000   1.0000   1.0000   1.0000
     1.0000   1.0000   1.0000   1.0000   1.0000   1.0000   1.0000   1.0000
     1.0000   1.0000   1.0000   1.0000   1.0000   1.0000   1.0000   1.0000
     1.0000   1.0000   1.0000   1.0000   1.0000   1.0000   1.0000   1.0000
     1.0000   1.0000   1.0000   1.0000   1.0000   1.0000   0.0000   0.0000
     0.0000   0.0000   0.0000   0.0000   0.0000   0.0000   0.0000   0.0000
     0.0000   0.0000   0.0000   0.0000

     the Fermi energy is     5.3947 ev

!    total energy              =   -1773.57545338 Ry
     estimated scf accuracy    <          4.9E-09 Ry
     smearing contrib. (-TS)   =      -0.00042929 Ry
     internal energy E=F+TS    =   -1773.57502409 Ry

     The total energy is F=E-TS. E is the sum of the following terms:
     one-electron contribution =   -7155.92180845 Ry
     hartree contribution      =    3587.40948750 Ry
     xc contribution           =    -173.67018292 Ry
     ewald contribution        =    1968.60747978 Ry

     convergence has been achieved in   7 iterations

     negative rho (up, down):  9.257E-04 0.000E+00

     Forces acting on atoms (cartesian axes, Ry/au):

     atom    1 type  1   force =     0.00000000    0.00000000    0.00900079
     atom    2 type  1   force =     0.00000000    0.00000000    0.00546544
     atom    3 type  1   force =     0.00000000    0.00000000    0.00696510
     atom    4 type  1   force =     0.00000000    0.00000000   -0.00696029
     atom    5 type  1   force =     0.00000000    0.00000000   -0.00549301
     atom    6 type  1   force =     0.00000000    0.00000000   -0.00897802
     The non-local contrib.  to forces
     atom    1 type  1   force =     0.00000000    0.00000000   -0.26848891
     atom    2 type  1   force =     0.00000000    0.00000000   -0.09115174
     atom    3 type  1   force =     0.00000000    0.00000000    0.01771056
     atom    4 type  1   force =     0.00000000    0.00000000   -0.01770921
     atom    5 type  1   force =     0.00000000    0.00000000    0.09115317
     atom    6 type  1   force =     0.00000000    0.00000000    0.26848491
     The ionic contribution  to forces
     atom    1 type  1   force =    -0.00000000    0.00000000 -256.63861305
     atom    2 type  1   force =     0.00000000   -0.00000000  -54.39535773
     atom    3 type  1   force =    -0.00000000    0.00000000  168.66540294
     atom    4 type  1   force =    -0.00000000   -0.00000000 -168.66534557
     atom    5 type  1   force =    -0.00000000   -0.00000000   54.39660188
     atom    6 type  1   force =     0.00000000   -0.00000000  256.63731152
     The local contribution  to forces
     atom    1 type  1   force =    -0.00000000   -0.00000000  256.91478260
     atom    2 type  1   force =     0.00000000   -0.00000000   54.49188496
     atom    3 type  1   force =     0.00000000    0.00000000 -168.67574941
     atom    4 type  1   force =     0.00000000    0.00000000  168.67563852
     atom    5 type  1   force =     0.00000000    0.00000000  -54.49295664
     atom    6 type  1   force =     0.00000000    0.00000000 -256.91364375
     The core correction contribution to forces
     atom    1 type  1   force =    -0.00000000    0.00000000    0.00149415
     atom    2 type  1   force =    -0.00000000    0.00000000    0.00037034
     atom    3 type  1   force =     0.00000000    0.00000000   -0.00029077
     atom    4 type  1   force =     0.00000000    0.00000000    0.00028776
     atom    5 type  1   force =     0.00000000    0.00000000   -0.00037019
     atom    6 type  1   force =    -0.00000000    0.00000000   -0.00149116
     The Hubbard contrib.    to forces
     atom    1 type  1   force =     0.00000000    0.00000000    0.00000000
     atom    2 type  1   force =     0.00000000    0.00000000    0.00000000
     atom    3 type  1   force =     0.00000000    0.00000000    0.00000000
     atom    4 type  1   force =     0.00000000    0.00000000    0.00000000
     atom    5 type  1   force =     0.00000000    0.00000000    0.00000000
     atom    6 type  1   force =     0.00000000    0.00000000    0.00000000
     The SCF correction term to forces
     atom    1 type  1   force =    -0.00000000    0.00000000   -0.00017259
     atom    2 type  1   force =     0.00000000    0.00000000   -0.00027898
     atom    3 type  1   force =    -0.00000000    0.00000000   -0.00010680
     atom    4 type  1   force =    -0.00000000    0.00000000    0.00016964
     atom    5 type  1   force =     0.00000000   -0.00000000    0.00008019
     atom    6 type  1   force =    -0.00000000   -0.00000000    0.00036188

     Total force =     0.017850     Total SCF correction =     0.000534


     Computing stress (Cartesian axis) and pressure


     negative rho (up, down):  9.257E-04 0.000E+00
          total   stress  (Ry/bohr**3)                   (kbar)     P=      -55.54
  -0.00035511   0.00000000   0.00000000          -52.24        0.00        0.00
   0.00000000  -0.00040955   0.00000000            0.00      -60.25        0.00
   0.00000000   0.00000000  -0.00036807            0.00        0.00      -54.15

     kinetic stress (kbar)  25393.60      0.00      0.00
                                0.00  25326.53      0.00
                                0.00      0.00  25406.34

     local   stress (kbar)-592796.98      0.00     -0.00
                                0.00-599153.70     -0.00
                               -0.00     -0.00 596728.13

     nonloc. stress (kbar)   2971.86      0.00      0.00
                                0.00   2976.86      0.00
                                0.00      0.00   2958.84

     hartree stress (kbar) 308095.74     -0.00      0.00
                               -0.00 310785.14      0.00
                                0.00      0.00-279512.49

     exc-cor stress (kbar)  -4572.81     -0.00     -0.00
                               -0.00  -4571.51      0.00
                               -0.00      0.00  -4576.09

     corecor stress (kbar)   -618.70      0.00     -0.00
                                0.00   -618.71      0.00
                               -0.00      0.00   -618.66

     ewald   stress (kbar) 261475.05     -0.00     -0.00
                               -0.00 265195.14     -0.00
                               -0.00     -0.00-340440.23

     hubbard stress (kbar)      0.00      0.00      0.00
                                0.00      0.00      0.00
                                0.00      0.00      0.00

     DFT-D   stress (kbar)      0.00      0.00      0.00
                                0.00      0.00      0.00
                                0.00      0.00      0.00

     XDM     stress (kbar)      0.00      0.00      0.00
                                0.00      0.00      0.00
                                0.00      0.00      0.00

     dft-nl  stress (kbar)      0.00      0.00      0.00
                                0.00      0.00      0.00
                                0.00      0.00      0.00

     TS-vdW  stress (kbar)      0.00      0.00      0.00
                                0.00      0.00      0.00
                                0.00      0.00      0.00


     Energy error            =      4.3E-04
     Gradient error          =      9.0E-03

     number of scf cycles    =   3
     number of bfgs steps    =   2

     energy   old            =   -1773.5750267592 Ry
     energy   new            =   -1773.5754533759 Ry

     CASE: energy  _new < energy  _old

     new trust radius        =       0.0171407718 bohr
     new conv_thr            =       0.0000000427 Ry


ATOMIC_POSITIONS (angstrom)
Ag            0.0000000000        0.0000000000        0.0205931023
Ag            0.0000000000        0.0000000000        2.9544331649
Ag            0.0000000000        0.0000000000        5.8999869353
Ag            2.0802750000        1.4709750000        1.4549212914
Ag            2.0802750000        1.4709750000        4.4002614442
Ag            2.0802750000        1.4709750000        7.3344290618



     Writing output data file ./surface.save/
     NEW-OLD atomic charge density approx. for the potential

     negative rho (up, down):  9.278E-04 0.000E+00

     total cpu time spent up to now is       24.6 secs

     Self-consistent Calculation

     iteration #  1     ecut=    30.00 Ry     beta= 0.30
[...]
     1.0000   1.0000   1.0000   1.0000   1.0000   1.0000   1.0000   1.0000
     1.0000   1.0000   1.0000   1.0000   1.0000   1.0000   1.0000   1.0000
     0.0000   0.0000   0.0000   0.0000   0.0000   0.0000   0.0000   0.0000
     0.0000   0.0000   0.0000   0.0000

          k = 0.2500 0.0000 0.0000 (  4310 PWs)   bands (ev):

   -86.4569 -86.4481 -86.4438 -86.4431 -86.2367 -86.2366 -49.9641 -49.9576
   -49.9394 -49.9107 -49.8990 -49.8912 -49.8900 -49.8890 -49.8817 -49.8724
   -49.8691 -49.8668 -49.6998 -49.6998 -49.6987 -49.6985 -49.6803 -49.6801
    -1.0591  -0.5022  -0.3591  -0.3011  -0.1463  -0.0630   0.0630   0.5305
     0.6492   0.6836   0.9390   0.9780   1.0126   1.0628   1.0903   1.1941
     1.3157   1.3640   1.3743   1.5891   1.6378   1.7875   1.8151   1.8517
     1.9892   2.0315   2.0563   2.1754   2.2650   2.4460   2.4925   2.5599
     3.4073   5.0050   5.4999   6.5474   7.4814   8.2086   9.6362   9.8381
    11.1987  12.0162  12.3727  12.9120

     occupation numbers 
     1.0000   1.0000   1.0000   1.0000   1.0000   1.0000   1.0000   1.0000
     1.0000   1.0000   1.0000   1.0000   1.0000   1.0000   1.0000   1.0000
     1.0000   1.0000   1.0000   1.0000   1.0000   1.0000   1.0000   1.0000
     1.0000   1.0000   1.0000   1.0000   1.0000   1.0000   1.0000   1.0000
     1.0000   1.0000   1.0000   1.0000   1.0000   1.0000   1.0000   1.0000
     1.0000   1.0000   1.0000   1.0000   1.0000   1.0000   1.0000   1.0000
     1.0000   1.0000   1.0000   1.0000   1.0000   1.0000   1.0000   1.0000
     1.0000   1.0000   0.0000   0.0000   0.0000   0.0000   0.0000   0.0000
     0.0000   0.0000   0.0000   0.0000

          k = 0.2500 0.3536 0.0000 (  4308 PWs)   bands (ev):

   -86.4532 -86.4467 -86.4419 -86.4411 -86.2346 -86.2344 -49.9575 -49.9486
   -49.9451 -49.9277 -49.9228 -49.9183 -49.9083 -49.8951 -49.8904 -49.8817
   -49.8711 -49.8709 -49.7299 -49.7296 -49.6970 -49.6970 -49.6799 -49.6795
    -0.3475  -0.1007  -0.0525   0.0509   0.2777   0.2896   0.3147   0.4601
     0.5248   0.6501   0.6870   0.8321   0.9468   0.9844   1.1115   1.1683
     1.2787   1.2893   1.4721   1.5526   1.6322   1.6719   1.7022   1.8239
     1.9759   2.0183   2.1251   2.2807   2.3996   2.4183   2.4833   3.0097
     4.6485   6.6217   6.9730   7.9080   8.8558   9.5909  10.7527  10.7904
    11.6824  12.0152  12.8054  13.0780

     occupation numbers 
     1.0000   1.0000   1.0000   1.0000   1.0000   1.0000   1.0000   1.0000
     1.0000   1.0000   1.0000   1.0000   1.0000   1.0000   1.0000   1.0000
     1.0000   1.0000   1.0000   1.0000   1.0000   1.0000   1.0000   1.0000
     1.0000   1.0000   1.0000   1.0000   1.0000   1.0000   1.0000   1.0000
     1.0000   1.0000   1.0000   1.0000   1.0000   1.0000   1.0000   1.0000
     1.0000   1.0000   1.0000   1.0000   1.0000   1.0000   1.0000   1.0000
     1.0000   1.0000   1.0000   1.0000   1.0000   1.0000   1.0000   1.0000
     1.0000   0.0000   0.0000   0.0000   0.0000   0.0000   0.0000   0.0000
     0.0000   0.0000   0.0000   0.0000

          k = 0.2500-0.7071 0.0000 (  4342 PWs)   bands (ev):

   -86.4476 -86.4475 -86.4397 -86.4393 -86.2324 -86.2323 -49.9708 -49.9707
   -49.9642 -49.9639 -49.9184 -49.9182 -49.9079 -49.9078 -49.8920 -49.8919
   -49.8741 -49.8739 -49.7604 -49.7603 -49.6956 -49.6956 -49.6792 -49.6790
    -0.2940  -0.2938  -0.2258  -0.2253  -0.1724  -0.1722   0.2746   0.2748
     0.4371   0.4372   0.7933   0.7935   1.1057   1.1057   1.4057   1.4060
     1.6098   1.6099   1.7011   1.7017   2.0119   2.0121   2.1485   2.1486
     2.2974   2.2975   2.5229   2.5230   2.5748   2.5748   5.3493   5.3494
     6.4894   6.4897   7.9910   7.9912  10.1417  10.1417  10.7880  10.7881
    11.5183  11.5183  12.9761  12.9765

     occupation numbers 
     1.0000   1.0000   1.0000   1.0000   1.0000   1.0000   1.0000   1.0000
     1.0000   1.0000   1.0000   1.0000   1.0000   1.0000   1.0000   1.0000
     1.0000   1.0000   1.0000   1.0000   1.0000   1.0000   1.0000   1.0000
     1.0000   1.0000   1.0000   1.0000   1.0000   1.0000   1.0000   1.0000
     1.0000   1.0000   1.0000   1.0000   1.0000   1.0000   1.0000   1.0000
     1.0000   1.0000   1.0000   1.0000   1.0000   1.0000   1.0000   1.0000
     1.0000   1.0000   1.0000   1.0000   1.0000   1.0000   0.5005   0.4995
     0.0000   0.0000   0.0000   0.0000   0.0000   0.0000   0.0000   0.0000
     0.0000   0.0000   0.0000   0.0000

          k =-0.5000 0.0000 0.0000 (  4318 PWs)   bands (ev):

   -86.4520 -86.4519 -86.4441 -86.4437 -86.2368 -86.2367 -49.9666 -49.9666
   -49.9237 -49.9235 -49.8874 -49.8871 -49.8818 -49.8816 -49.8798 -49.8796
   -49.8781 -49.8779 -49.6997 -49.6995 -49.6979 -49.6979 -49.6826 -49.6824
    -0.5345  -0.5343  -0.2482  -0.2481   0.1127   0.1128   0.2958   0.2961
     0.7809   0.7811   0.8989   0.8990   0.8998   0.8998   1.2385   1.2386
     1.3889   1.3892   1.4529   1.4537   1.6070   1.6072   2.2252   2.2253
     2.2819   2.2822   2.3814   2.3816   2.4052   2.4052   2.4858   2.4858
     3.3514   3.3518   5.0373   5.0376   6.9314   6.9314  10.2775  10.2775
    11.4334  11.4341  11.5199  11.5206

     occupation numbers 
     1.0000   1.0000   1.0000   1.0000   1.0000   1.0000   1.0000   1.0000
     1.0000   1.0000   1.0000   1.0000   1.0000   1.0000   1.0000   1.0000
     1.0000   1.0000   1.0000   1.0000   1.0000   1.0000   1.0000   1.0000
     1.0000   1.0000   1.0000   1.0000   1.0000   1.0000   1.0000   1.0000
     1.0000   1.0000   1.0000   1.0000   1.0000   1.0000   1.0000   1.0000
     1.0000   1.0000   1.0000   1.0000   1.0000   1.0000   1.0000   1.0000
     1.0000   1.0000   1.0000   1.0000   1.0000   1.0000   1.0000   1.0000
     1.0000   1.0000   1.0000   1.0000   0.0000   0.0000   0.0000   0.0000
     0.0000   0.0000   0.0000   0.0000

          k =-0.5000 0.3536 0.0000 (  4304 PWs)   bands (ev):

   -86.4498 -86.4496 -86.4418 -86.4415 -86.2346 -86.2345 -49.9555 -49.9554
   -49.9413 -49.9411 -49.9219 -49.9216 -49.8977 -49.8976 -49.8813 -49.8813
   -49.8725 -49.8723 -49.7291 -49.7290 -49.6967 -49.6967 -49.6792 -49.6791
    -0.0271  -0.0270   0.1070   0.1072   0.4428   0.4429   0.5994   0.5995
     0.6987   0.6989   0.8103   0.8105   1.0313   1.0317   1.0676   1.0679
     1.2824   1.2827   1.4661   1.4662   1.4965   1.4966   1.5393   1.5395
     1.8807   1.8809   2.1042   2.1045   2.2914   2.2915   3.7018   3.7018
     4.8594   4.8595   6.6619   6.6621   8.5014   8.5015  11.1746  11.1746
    12.4776  12.4781  12.5770  12.5778

     occupation numbers 
     1.0000   1.0000   1.0000   1.0000   1.0000   1.0000   1.0000   1.0000
     1.0000   1.0000   1.0000   1.0000   1.0000   1.0000   1.0000   1.0000
     1.0000   1.0000   1.0000   1.0000   1.0000   1.0000   1.0000   1.0000
     1.0000   1.0000   1.0000   1.0000   1.0000   1.0000   1.0000   1.0000
     1.0000   1.0000   1.0000   1.0000   1.0000   1.0000   1.0000   1.0000
     1.0000   1.0000   1.0000   1.0000   1.0000   1.0000   1.0000   1.0000
     1.0000   1.0000   1.0000   1.0000   1.0000   1.0000   1.0000   1.0000
     1.0000   1.0000   0.0000   0.0000   0.0000   0.0000   0.0000   0.0000
     0.0000   0.0000   0.0000   0.0000

          k =-0.5000-0.7071 0.0000 (  4376 PWs)   bands (ev):

   -86.4476 -86.4475 -86.4397 -86.4393 -86.2324 -86.2323 -49.9806 -49.9806
   -49.9576 -49.9575 -49.9243 -49.9243 -49.9117 -49.9115 -49.8832 -49.8831
   -49.8738 -49.8735 -49.7586 -49.7585 -49.6967 -49.6967 -49.6772 -49.6770
    -0.4250  -0.4250   0.1274   0.1276   0.1687   0.1690   0.5343   0.5349
     0.6233   0.6237   0.7814   0.7816   0.8657   0.8662   0.9546   0.9547
     1.4456   1.4457   1.5157   1.5159   1.8547   1.8549   2.1521   2.1522
     2.4508   2.4510   2.4910   2.4910   2.5651   2.5651   5.8440   5.8440
     7.5864   7.5864   8.8575   8.8577   9.3314   9.3317   9.7390   9.7392
    10.4776  10.4779  11.8568  11.8569

     occupation numbers 
     1.0000   1.0000   1.0000   1.0000   1.0000   1.0000   1.0000   1.0000
     1.0000   1.0000   1.0000   1.0000   1.0000   1.0000   1.0000   1.0000
     1.0000   1.0000   1.0000   1.0000   1.0000   1.0000   1.0000   1.0000
     1.0000   1.0000   1.0000   1.0000   1.0000   1.0000   1.0000   1.0000
     1.0000   1.0000   1.0000   1.0000   1.0000   1.0000   1.0000   1.0000
     1.0000   1.0000   1.0000   1.0000   1.0000   1.0000   1.0000   1.0000
     1.0000   1.0000   1.0000   1.0000   1.0000   1.0000   0.0000   0.0000
     0.0000   0.0000   0.0000   0.0000   0.0000   0.0000   0.0000   0.0000
     0.0000   0.0000   0.0000   0.0000

     the Fermi energy is     5.3494 ev

!    total energy              =   -1773.57784868 Ry
     estimated scf accuracy    <          9.5E-09 Ry
     smearing contrib. (-TS)   =      -0.00042314 Ry
     internal energy E=F+TS    =   -1773.57742554 Ry

     The total energy is F=E-TS. E is the sum of the following terms:
     one-electron contribution =   -7315.04545365 Ry
     hartree contribution      =    3666.80824693 Ry
     xc contribution           =    -173.70664201 Ry
     ewald contribution        =    2048.36642319 Ry

     convergence has been achieved in   7 iterations

     negative rho (up, down):  9.475E-04 0.000E+00

     Forces acting on atoms (cartesian axes, Ry/au):

     atom    1 type  1   force =     0.00000000    0.00000000    0.00000528
     atom    2 type  1   force =     0.00000000    0.00000000   -0.00078653
     atom    3 type  1   force =     0.00000000    0.00000000   -0.00018685
     atom    4 type  1   force =     0.00000000    0.00000000    0.00030724
     atom    5 type  1   force =     0.00000000    0.00000000    0.00059154
     atom    6 type  1   force =     0.00000000    0.00000000    0.00006931
     The non-local contrib.  to forces
     atom    1 type  1   force =     0.00000000    0.00000000   -0.26252740
     atom    2 type  1   force =     0.00000000    0.00000000   -0.09868875
     atom    3 type  1   force =     0.00000000    0.00000000    0.00010672
     atom    4 type  1   force =     0.00000000    0.00000000    0.00012598
     atom    5 type  1   force =     0.00000000    0.00000000    0.09843774
     atom    6 type  1   force =     0.00000000    0.00000000    0.26265483
     The ionic contribution  to forces
     atom    1 type  1   force =    -0.00000000   -0.00000000 -258.97418291
     atom    2 type  1   force =    -0.00000000   -0.00000000  -52.26845742
     atom    3 type  1   force =     0.00000000   -0.00000000  172.83084184
     atom    4 type  1   force =     0.00000000    0.00000000 -172.83316660
     atom    5 type  1   force =     0.00000000    0.00000000   52.24243240
     atom    6 type  1   force =     0.00000000    0.00000000  259.00253269
     The local contribution  to forces
     atom    1 type  1   force =    -0.00000000    0.00000000  259.23547650
     atom    2 type  1   force =     0.00000000   -0.00000000   52.36618611
     atom    3 type  1   force =     0.00000000    0.00000000 -172.83119022
     atom    4 type  1   force =     0.00000000    0.00000000  172.83329275
     atom    5 type  1   force =    -0.00000000    0.00000000  -52.33995678
     atom    6 type  1   force =     0.00000000    0.00000000 -259.26400030
     The core correction contribution to forces
     atom    1 type  1   force =    -0.00000000    0.00000000    0.00147123
     atom    2 type  1   force =    -0.00000000   -0.00000000    0.00035733
     atom    3 type  1   force =    -0.00000000    0.00000000   -0.00028444
     atom    4 type  1   force =    -0.00000000    0.00000000    0.00028491
     atom    5 type  1   force =    -0.00000000    0.00000000   -0.00035467
     atom    6 type  1   force =    -0.00000000    0.00000000   -0.00146802
     The Hubbard contrib.    to forces
     atom    1 type  1   force =     0.00000000    0.00000000    0.00000000
     atom    2 type  1   force =     0.00000000    0.00000000    0.00000000
     atom    3 type  1   force =     0.00000000    0.00000000    0.00000000
     atom    4 type  1   force =     0.00000000    0.00000000    0.00000000
     atom    5 type  1   force =     0.00000000    0.00000000    0.00000000
     atom    6 type  1   force =     0.00000000    0.00000000    0.00000000
     The SCF correction term to forces
     atom    1 type  1   force =     0.00000000   -0.00000000   -0.00021978
     atom    2 type  1   force =    -0.00000000   -0.00000000   -0.00017142
     atom    3 type  1   force =     0.00000000   -0.00000000    0.00035162
     atom    4 type  1   force =     0.00000000   -0.00000000   -0.00021742
     atom    5 type  1   force =    -0.00000000   -0.00000000    0.00004522
     atom    6 type  1   force =    -0.00000000   -0.00000000    0.00036247

     Total force =     0.001050     Total SCF correction =     0.000618
     SCF correction compared to forces is large: reduce conv_thr to get better values


     Computing stress (Cartesian axis) and pressure


     negative rho (up, down):  9.475E-04 0.000E+00
          total   stress  (Ry/bohr**3)                   (kbar)     P=      -49.33
  -0.00030519   0.00000000   0.00000000          -44.89        0.00        0.00
   0.00000000  -0.00038360   0.00000000            0.00      -56.43        0.00
   0.00000000   0.00000000  -0.00031724            0.00        0.00      -46.67

     kinetic stress (kbar)  25393.43      0.00      0.00
                                0.00  25329.70      0.00
                                0.00      0.00  25419.40

     local   stress (kbar)-609548.63     -0.00     -0.00
                               -0.00-614582.59     -0.00
                               -0.00     -0.00 613851.73

     nonloc. stress (kbar)   2974.70      0.00      0.00
                                0.00   2979.98      0.00
                                0.00      0.00   2958.73

     hartree stress (kbar) 316291.82     -0.00     -0.00
                               -0.00 318439.83      0.00
                               -0.00      0.00-287852.14

     exc-cor stress (kbar)  -4573.32     -0.00     -0.00
                               -0.00  -4572.54     -0.00
                               -0.00     -0.00  -4577.18

     corecor stress (kbar)   -618.70     -0.00      0.00
                               -0.00   -618.71     -0.00
                                0.00     -0.00   -618.64

     ewald   stress (kbar) 270035.80     -0.00      0.00
                               -0.00 272967.91      0.00
                                0.00      0.00-349228.55

     hubbard stress (kbar)      0.00      0.00      0.00
                                0.00      0.00      0.00
                                0.00      0.00      0.00

     DFT-D   stress (kbar)      0.00      0.00      0.00
                                0.00      0.00      0.00
                                0.00      0.00      0.00

     XDM     stress (kbar)      0.00      0.00      0.00
                                0.00      0.00      0.00
                                0.00      0.00      0.00

     dft-nl  stress (kbar)      0.00      0.00      0.00
                                0.00      0.00      0.00
                                0.00      0.00      0.00

     TS-vdW  stress (kbar)      0.00      0.00      0.00
                                0.00      0.00      0.00
                                0.00      0.00      0.00


     Energy error            =      2.4E-05
     Gradient error          =      7.9E-04

     bfgs converged in  12 scf cycles and  11 bfgs steps
     (criteria: energy <  1.0E-04 Ry, force <  1.0E-03 Ry/Bohr)

     End of BFGS Geometry Optimization

     Final energy   =   -1773.5778486782 Ry

     File ./surface.bfgs deleted, as requested
Begin final coordinates

ATOMIC_POSITIONS (angstrom)
Ag            0.0000000000        0.0000000000        0.1022271502
Ag            0.0000000000        0.0000000000        2.9980490747
Ag            0.0000000000        0.0000000000        5.9214898014
Ag            2.0802750000        1.4709750000        1.4328728492
Ag            2.0802750000        1.4709750000        4.3575361442
Ag            2.0802750000        1.4709750000        7.2524499802
End final coordinates



     Writing output data file ./surface.save/

     init_run     :      0.45s CPU      0.50s WALL (       1 calls)
     electrons    :     70.54s CPU     71.99s WALL (      12 calls)
     update_pot   :      1.53s CPU      1.56s WALL (      11 calls)
     forces       :      2.57s CPU      2.59s WALL (      12 calls)
     stress       :      7.45s CPU      7.51s WALL (      12 calls)

     Called by init_run:
     wfcinit      :      0.21s CPU      0.23s WALL (       1 calls)
     wfcinit:atom :      0.00s CPU      0.00s WALL (       9 calls)
     wfcinit:wfcr :      0.20s CPU      0.22s WALL (       9 calls)
     potinit      :      0.06s CPU      0.07s WALL (       1 calls)
     hinit0       :      0.11s CPU      0.13s WALL (       1 calls)

     Called by electrons:
     c_bands      :     55.96s CPU     56.94s WALL (      91 calls)
     sum_band     :     10.03s CPU     10.24s WALL (      91 calls)
     v_of_rho     :      1.39s CPU      1.41s WALL (      98 calls)
     v_h          :      0.07s CPU      0.08s WALL (      98 calls)
     v_xc         :      1.63s CPU      1.65s WALL (     122 calls)
     newd         :      3.33s CPU      3.36s WALL (      98 calls)
     mix_rho      :      0.13s CPU      0.13s WALL (      91 calls)

     Called by c_bands:
     init_us_2    :      0.29s CPU      0.30s WALL (    1863 calls)
     cegterg      :     54.91s CPU     55.84s WALL (     819 calls)

     Called by sum_band:
     sum_band:wei :      0.02s CPU      0.02s WALL (      91 calls)
     sum_band:loo :      5.93s CPU      6.09s WALL (      91 calls)
     sum_band:buf :      0.06s CPU      0.06s WALL (     819 calls)
     sum_band:ini :      0.11s CPU      0.11s WALL (     819 calls)
     sum_band:cal :      1.19s CPU      1.21s WALL (     819 calls)
     sum_band:bec :      0.05s CPU      0.06s WALL (     819 calls)
     addusdens    :      2.91s CPU      2.95s WALL (      91 calls)
     addusd:skk   :      0.03s CPU      0.03s WALL (      91 calls)
     addusd:dgemm :      1.12s CPU      1.15s WALL (      91 calls)
     addusd:qvan2 :      1.37s CPU      1.38s WALL (      91 calls)

     Called by *egterg:
     cdiaghg      :     13.68s CPU     13.81s WALL (    2440 calls)
     cegterg:over :      4.74s CPU      4.79s WALL (    1765 calls)
     cegterg:upda :      2.27s CPU      2.29s WALL (    1765 calls)
     cegterg:last :      5.12s CPU      5.17s WALL (    1521 calls)
     cdiaghg:chol :      0.79s CPU      0.81s WALL (    2440 calls)
     cdiaghg:inve :      0.62s CPU      0.63s WALL (    2440 calls)
     cdiaghg:para :      1.49s CPU      1.51s WALL (    4880 calls)
     h_psi        :     26.03s CPU     26.70s WALL (    2593 calls)
     s_psi        :      1.36s CPU      1.38s WALL (    2593 calls)
     g_psi        :      0.05s CPU      0.05s WALL (    1765 calls)

     Called by h_psi:
     h_psi:calbec :      3.32s CPU      3.37s WALL (    2593 calls)
     vloc_psi     :     21.15s CPU     21.75s WALL (    2593 calls)
     add_vuspsi   :      1.45s CPU      1.46s WALL (    2593 calls)

     General routines
     calbec       :      5.23s CPU      5.31s WALL (    3952 calls)
     fft          :      1.24s CPU      1.27s WALL (    1566 calls)
     ffts         :      0.04s CPU      0.05s WALL (     189 calls)
     fftw         :     24.32s CPU     25.03s WALL (  320384 calls)
     interpolate  :      0.09s CPU      0.09s WALL (      98 calls)

     Parallel routines
     fft_scatt_xy :      1.53s CPU      1.57s WALL (  322139 calls)
     fft_scatt_yz :     15.21s CPU     15.66s WALL (  322139 calls)

     PWSCF        :   1m23.24s CPU   1m26.39s WALL


   This run was terminated on:   3:53: 6  10Dec2021            

=------------------------------------------------------------------------------=
   JOB DONE.
=------------------------------------------------------------------------------=
