
     Program PWSCF v.6.7MaX starts on 10Dec2021 at  3:54:15 

     This program is part of the open-source Quantum ESPRESSO suite
     for quantum simulation of materials; please cite
         "P. Giannozzi et al., J. Phys.:Condens. Matter 21 395502 (2009);
         "P. Giannozzi et al., J. Phys.:Condens. Matter 29 465901 (2017);
          URL http://www.quantum-espresso.org", 
     in publications or presentations arising from this work. More details at
     http://www.quantum-espresso.org/quote

     Parallel version (MPI), running on    16 processors

     MPI processes distributed on     1 nodes
     R & G space division:  proc/nbgrp/npool/nimage =      16
     Reading input from ag_surface.100.qe.7656472.1_1_3.in

     Current dimensions of program PWSCF are:
     Max number of different atomic species (ntypx) = 10
     Max number of k-points (npk) =  40000
     Max angular momentum in pseudopotentials (lmaxx) =  3

     Subspace diagonalization in iterative solution of the eigenvalue problem:
     one sub-group per band group will be used
     scalapack distributed-memory algorithm (size of sub-group:  4*  4 procs)

     Found symmetry operation: I + ( -0.5000 -0.5000  0.0000)
     This is a supercell, fractional translations are disabled

     Parallelization info
     --------------------
     sticks:   dense  smooth     PW     G-vecs:    dense   smooth      PW
     Min          92      37     11                14410     3643     611
     Max          93      38     12                14427     3662     634
     Sum        1481     593    177               230691    58341    9825



     bravais-lattice index     =            8
     lattice parameter (alat)  =       7.8623  a.u.
     unit-cell volume          =    2626.1908 (a.u.)^3
     number of atoms/cell      =           12
     number of atomic types    =            1
     number of electrons       =       228.00
     number of Kohn-Sham states=          137
     kinetic-energy cutoff     =      30.0000  Ry
     charge density cutoff     =     300.0000  Ry
     scf convergence threshold =      1.0E-06
     mixing beta               =       0.3000
     number of iterations used =            8  plain     mixing
     energy convergence thresh.=      1.0E-04
     force convergence thresh. =      1.0E-03
     Exchange-correlation=  SLA  PW   PBX  PBC
                           (   1   4   3   4   0   0   0)
     nstep                     =           50


     celldm(1)=   7.862300  celldm(2)=   1.000000  celldm(3)=   5.403528
     celldm(4)=   0.000000  celldm(5)=   0.000000  celldm(6)=   0.000000

     crystal axes: (cart. coord. in units of alat)
               a(1) = (   1.000000   0.000000   0.000000 )  
               a(2) = (   0.000000   1.000000   0.000000 )  
               a(3) = (   0.000000   0.000000   5.403528 )  

     reciprocal axes: (cart. coord. in units 2 pi/alat)
               b(1) = (  1.000000  0.000000  0.000000 )  
               b(2) = (  0.000000  1.000000  0.000000 )  
               b(3) = (  0.000000  0.000000  0.185064 )  


     PseudoPot. # 1 for Ag read from file:
     /expanse/lustre/projects/csd622/tpascal/nano110/qe/pseudo/ag_pbe_v1.4.uspp.F.UPF
     MD5 check sum: d66d668201baa78d5eb5b04ef7011058
     Pseudo is Ultrasoft + core correction, Zval = 19.0
     Generated by new atomic code, or converted to UPF format
     Using radial grid of  887 points,  6 beta functions with: 
                l(1) =   0
                l(2) =   0
                l(3) =   1
                l(4) =   1
                l(5) =   2
                l(6) =   2
     Q(r) pseudized with  6 coefficients,  rinner =    1.300   1.300   1.300
                                                       1.300   1.300

     atomic species   valence    mass     pseudopotential
        Ag            19.00   107.86820     Ag( 1.00)

      8 Sym. Ops. (no inversion) found


                                    s                        frac. trans.

      isym =  1     identity                                     

 cryst.   s( 1) = (     1          0          0      )
                  (     0          1          0      )
                  (     0          0          1      )

 cart.    s( 1) = (  1.0000000  0.0000000  0.0000000 )
                  (  0.0000000  1.0000000  0.0000000 )
                  (  0.0000000  0.0000000  1.0000000 )


      isym =  2     180 deg rotation - cart. axis [0,0,1]        

 cryst.   s( 2) = (    -1          0          0      )
                  (     0         -1          0      )
                  (     0          0          1      )

 cart.    s( 2) = ( -1.0000000  0.0000000  0.0000000 )
                  (  0.0000000 -1.0000000  0.0000000 )
                  (  0.0000000  0.0000000  1.0000000 )


      isym =  3      90 deg rotation - cart. axis [0,0,-1]       

 cryst.   s( 3) = (     0         -1          0      )
                  (     1          0          0      )
                  (     0          0          1      )

 cart.    s( 3) = (  0.0000000  1.0000000  0.0000000 )
                  ( -1.0000000  0.0000000  0.0000000 )
                  (  0.0000000  0.0000000  1.0000000 )


      isym =  4      90 deg rotation - cart. axis [0,0,1]        

 cryst.   s( 4) = (     0          1          0      )
                  (    -1          0          0      )
                  (     0          0          1      )

 cart.    s( 4) = (  0.0000000 -1.0000000  0.0000000 )
                  (  1.0000000  0.0000000  0.0000000 )
                  (  0.0000000  0.0000000  1.0000000 )


      isym =  5     inv. 180 deg rotation - cart. axis [0,1,0]   

 cryst.   s( 5) = (     1          0          0      )
                  (     0         -1          0      )
                  (     0          0          1      )

 cart.    s( 5) = (  1.0000000  0.0000000  0.0000000 )
                  (  0.0000000 -1.0000000  0.0000000 )
                  (  0.0000000  0.0000000  1.0000000 )


      isym =  6     inv. 180 deg rotation - cart. axis [1,0,0]   

 cryst.   s( 6) = (    -1          0          0      )
                  (     0          1          0      )
                  (     0          0          1      )

 cart.    s( 6) = ( -1.0000000  0.0000000  0.0000000 )
                  (  0.0000000  1.0000000  0.0000000 )
                  (  0.0000000  0.0000000  1.0000000 )


      isym =  7     inv. 180 deg rotation - cart. axis [1,1,0]   

 cryst.   s( 7) = (     0         -1          0      )
                  (    -1          0          0      )
                  (     0          0          1      )

 cart.    s( 7) = (  0.0000000 -1.0000000  0.0000000 )
                  ( -1.0000000  0.0000000  0.0000000 )
                  (  0.0000000  0.0000000  1.0000000 )


      isym =  8     inv. 180 deg rotation - cart. axis [1,-1,0]  

 cryst.   s( 8) = (     0          1          0      )
                  (     1          0          0      )
                  (     0          0          1      )

 cart.    s( 8) = (  0.0000000  1.0000000  0.0000000 )
                  (  1.0000000  0.0000000  0.0000000 )
                  (  0.0000000  0.0000000  1.0000000 )


     point group C_4v (4mm) 
     there are  5 classes
     the character table:

       E     2C4   C2    2s_v  2s_d 
A_1    1.00  1.00  1.00  1.00  1.00
A_2    1.00  1.00  1.00 -1.00 -1.00
B_1    1.00 -1.00  1.00  1.00 -1.00
B_2    1.00 -1.00  1.00 -1.00  1.00
E      2.00  0.00 -2.00  0.00  0.00

     the symmetry operations in each class and the name of the first element:

     E        1
          identity                                               
     2C4      3    4
           90 deg rotation - cart. axis [0,0,-1]                 
     C2       2
          180 deg rotation - cart. axis [0,0,1]                  
     2s_v     5    6
          inv. 180 deg rotation - cart. axis [0,1,0]             
     2s_d     7    8
          inv. 180 deg rotation - cart. axis [1,1,0]             

   Cartesian axes

     site n.     atom                  positions (alat units)
         1           Ag  tau(   1) = (   0.0000000   0.0000000   0.0000000  )
         2           Ag  tau(   2) = (   0.0000000   0.0000000   1.0000000  )
         3           Ag  tau(   3) = (   0.0000000   0.0000000   2.0000000  )
         4           Ag  tau(   4) = (   0.0000000   0.5000000   0.5000000  )
         5           Ag  tau(   5) = (   0.0000000   0.5000000   1.5000000  )
         6           Ag  tau(   6) = (   0.0000000   0.5000000   2.5000000  )
         7           Ag  tau(   7) = (   0.5000000   0.0000000   0.5000000  )
         8           Ag  tau(   8) = (   0.5000000   0.0000000   1.5000000  )
         9           Ag  tau(   9) = (   0.5000000   0.0000000   2.5000000  )
        10           Ag  tau(  10) = (   0.5000000   0.5000000   0.0000000  )
        11           Ag  tau(  11) = (   0.5000000   0.5000000   1.0000000  )
        12           Ag  tau(  12) = (   0.5000000   0.5000000   2.0000000  )

   Crystallographic axes

     site n.     atom                  positions (cryst. coord.)
         1           Ag  tau(   1) = (  0.0000000  0.0000000  0.0000000  )
         2           Ag  tau(   2) = (  0.0000000  0.0000000  0.1850643  )
         3           Ag  tau(   3) = (  0.0000000  0.0000000  0.3701285  )
         4           Ag  tau(   4) = (  0.0000000  0.5000000  0.0925321  )
         5           Ag  tau(   5) = (  0.0000000  0.5000000  0.2775964  )
         6           Ag  tau(   6) = (  0.0000000  0.5000000  0.4626607  )
         7           Ag  tau(   7) = (  0.5000000  0.0000000  0.0925321  )
         8           Ag  tau(   8) = (  0.5000000  0.0000000  0.2775964  )
         9           Ag  tau(   9) = (  0.5000000  0.0000000  0.4626607  )
        10           Ag  tau(  10) = (  0.5000000  0.5000000  0.0000000  )
        11           Ag  tau(  11) = (  0.5000000  0.5000000  0.1850643  )
        12           Ag  tau(  12) = (  0.5000000  0.5000000  0.3701285  )

     number of k points=     6  Gaussian smearing, width (Ry)=  0.0030
                       cart. coord. in units 2pi/alat
        k(    1) = (   0.0000000   0.0000000   0.0000000), wk =   0.1250000
        k(    2) = (   0.0000000   0.2500000   0.0000000), wk =   0.5000000
        k(    3) = (   0.0000000  -0.5000000   0.0000000), wk =   0.2500000
        k(    4) = (   0.2500000   0.2500000   0.0000000), wk =   0.5000000
        k(    5) = (   0.2500000  -0.5000000   0.0000000), wk =   0.5000000
        k(    6) = (  -0.5000000  -0.5000000   0.0000000), wk =   0.1250000

                       cryst. coord.
        k(    1) = (   0.0000000   0.0000000   0.0000000), wk =   0.1250000
        k(    2) = (   0.0000000   0.2500000   0.0000000), wk =   0.5000000
        k(    3) = (   0.0000000  -0.5000000   0.0000000), wk =   0.2500000
        k(    4) = (   0.2500000   0.2500000   0.0000000), wk =   0.5000000
        k(    5) = (   0.2500000  -0.5000000   0.0000000), wk =   0.5000000
        k(    6) = (  -0.5000000  -0.5000000   0.0000000), wk =   0.1250000

     Dense  grid:   230691 G-vectors     FFT dimensions: (  45,  45, 240)

     Smooth grid:    58341 G-vectors     FFT dimensions: (  27,  27, 150)

     Dynamical RAM for                 wfc:       0.95 MB

     Dynamical RAM for     wfc (w. buffer):       6.66 MB

     Dynamical RAM for           str. fact:       0.22 MB

     Dynamical RAM for           local pot:       0.00 MB

     Dynamical RAM for          nlocal pot:       1.50 MB

     Dynamical RAM for                qrad:       1.39 MB

     Dynamical RAM for          rho,v,vnew:       1.36 MB

     Dynamical RAM for               rhoin:       0.45 MB

     Dynamical RAM for            rho*nmix:       3.52 MB

     Dynamical RAM for           G-vectors:       0.85 MB

     Dynamical RAM for          h,s,v(r/c):       0.21 MB

     Dynamical RAM for          <psi|beta>:       0.45 MB

     Dynamical RAM for                 psi:       1.90 MB

     Dynamical RAM for                hpsi:       1.90 MB

     Dynamical RAM for                spsi:       1.90 MB

     Dynamical RAM for      wfcinit/wfcrot:       2.72 MB

     Dynamical RAM for           addusdens:      43.58 MB

     Dynamical RAM for          addusforce:      48.57 MB

     Dynamical RAM for         addusstress:      44.24 MB

     Estimated static dynamical RAM per process >      17.55 MB

     Estimated max dynamical RAM per process >      66.12 MB

     Estimated total dynamical RAM >       1.03 GB

     Initial potential from superposition of free atoms

     starting charge  221.99943, renormalised to  228.00000

     negative rho (up, down):  1.711E-03 0.000E+00
     Starting wfcs are  156 randomized atomic wfcs

     total cpu time spent up to now is        1.2 secs

     Self-consistent Calculation

     iteration #  1     ecut=    30.00 Ry     beta= 0.30
     Davidson diagonalization with overlap
     ethr =  1.00E-02,  avg # of iterations =  5.8

     total cpu time spent up to now is        3.5 secs

     total energy              =   -3543.09199721 Ry
     estimated scf accuracy    <      18.84390276 Ry

     iteration #  2     ecut=    30.00 Ry     beta= 0.30
     Davidson diagonalization with overlap
     ethr =  8.26E-03,  avg # of iterations =  4.2

     negative rho (up, down):  3.445E-08 0.000E+00

     total cpu time spent up to now is        5.7 secs

     total energy              =   -3541.11283917 Ry
     estimated scf accuracy    <      47.26010349 Ry

     iteration #  3     ecut=    30.00 Ry     beta= 0.30
     Davidson diagonalization with overlap
     ethr =  8.26E-03,  avg # of iterations =  3.8

     negative rho (up, down):  4.125E-07 0.000E+00

     total cpu time spent up to now is        7.5 secs

     total energy              =   -3545.31150176 Ry
     estimated scf accuracy    <      25.89874022 Ry

     iteration #  4     ecut=    30.00 Ry     beta= 0.30
     Davidson diagonalization with overlap
     ethr =  8.26E-03,  avg # of iterations =  1.8

     negative rho (up, down):  1.602E-06 0.000E+00

     total cpu time spent up to now is        9.1 secs

     total energy              =   -3547.18653346 Ry
     estimated scf accuracy    <       1.18668163 Ry

     iteration #  5     ecut=    30.00 Ry     beta= 0.30
     Davidson diagonalization with overlap
     ethr =  5.20E-04,  avg # of iterations =  5.8

     negative rho (up, down):  3.027E-06 0.000E+00

     total cpu time spent up to now is       11.0 secs

     total energy              =   -3547.22003749 Ry
     estimated scf accuracy    <       0.46610324 Ry

     iteration #  6     ecut=    30.00 Ry     beta= 0.30
     Davidson diagonalization with overlap
     ethr =  2.04E-04,  avg # of iterations =  4.3

     negative rho (up, down):  4.604E-05 0.000E+00

     total cpu time spent up to now is       12.8 secs

     total energy              =   -3547.19174986 Ry
     estimated scf accuracy    <       0.52525044 Ry

     iteration #  7     ecut=    30.00 Ry     beta= 0.30
     Davidson diagonalization with overlap
     ethr =  2.04E-04,  avg # of iterations =  3.0

     negative rho (up, down):  1.478E-04 0.000E+00

     total cpu time spent up to now is       14.4 secs

     total energy              =   -3547.22827640 Ry
     estimated scf accuracy    <       0.03352973 Ry

     iteration #  8     ecut=    30.00 Ry     beta= 0.30
     Davidson diagonalization with overlap
     ethr =  1.47E-05,  avg # of iterations =  7.2

     negative rho (up, down):  3.829E-04 0.000E+00

     total cpu time spent up to now is       16.5 secs

     total energy              =   -3547.22823076 Ry
     estimated scf accuracy    <       0.04361110 Ry

     iteration #  9     ecut=    30.00 Ry     beta= 0.30
     Davidson diagonalization with overlap
     ethr =  1.47E-05,  avg # of iterations =  2.3

     negative rho (up, down):  7.319E-04 0.000E+00

     total cpu time spent up to now is       18.1 secs

     total energy              =   -3547.22970742 Ry
     estimated scf accuracy    <       0.00669572 Ry

     iteration # 10     ecut=    30.00 Ry     beta= 0.30
     Davidson diagonalization with overlap
     ethr =  2.94E-06,  avg # of iterations =  2.0

     negative rho (up, down):  1.106E-03 0.000E+00

     total cpu time spent up to now is       19.7 secs

     total energy              =   -3547.22968127 Ry
     estimated scf accuracy    <       0.00842329 Ry

     iteration # 11     ecut=    30.00 Ry     beta= 0.30
     Davidson diagonalization with overlap
     ethr =  2.94E-06,  avg # of iterations =  3.2

     negative rho (up, down):  1.185E-03 0.000E+00

     total cpu time spent up to now is       21.3 secs

     total energy              =   -3547.22985455 Ry
     estimated scf accuracy    <       0.00939579 Ry

     iteration # 12     ecut=    30.00 Ry     beta= 0.30
     Davidson diagonalization with overlap
     ethr =  2.94E-06,  avg # of iterations =  1.0

     negative rho (up, down):  1.384E-03 0.000E+00

     total cpu time spent up to now is       22.7 secs

     total energy              =   -3547.23003685 Ry
     estimated scf accuracy    <       0.00167673 Ry

     iteration # 13     ecut=    30.00 Ry     beta= 0.30
     Davidson diagonalization with overlap
     ethr =  7.35E-07,  avg # of iterations =  1.0

     negative rho (up, down):  1.390E-03 0.000E+00

     total cpu time spent up to now is       24.1 secs

     total energy              =   -3547.23006756 Ry
     estimated scf accuracy    <       0.00010285 Ry

     iteration # 14     ecut=    30.00 Ry     beta= 0.30
     Davidson diagonalization with overlap
     ethr =  4.51E-08,  avg # of iterations =  1.0

     negative rho (up, down):  1.415E-03 0.000E+00

     total cpu time spent up to now is       25.5 secs

     total energy              =   -3547.23006777 Ry
     estimated scf accuracy    <       0.00002065 Ry

     iteration # 15     ecut=    30.00 Ry     beta= 0.30
     Davidson diagonalization with overlap
     ethr =  9.06E-09,  avg # of iterations =  1.0

     negative rho (up, down):  1.429E-03 0.000E+00

     total cpu time spent up to now is       26.8 secs

     total energy              =   -3547.23006835 Ry
     estimated scf accuracy    <       0.00000656 Ry

     iteration # 16     ecut=    30.00 Ry     beta= 0.30
     Davidson diagonalization with overlap
     ethr =  2.88E-09,  avg # of iterations =  1.0

     negative rho (up, down):  1.439E-03 0.000E+00

     total cpu time spent up to now is       28.2 secs

     End of self-consistent calculation

          k = 0.0000 0.0000 0.0000 (  7307 PWs)   bands (ev):

   -84.8215 -84.8212 -84.8117 -84.8116 -84.8022 -84.7938 -84.7902 -84.7901
   -84.5258 -84.5256 -84.5171 -84.5169 -48.3312 -48.3312 -48.3230 -48.3230
   -48.3150 -48.2915 -48.2906 -48.2906 -48.2615 -48.2615 -48.2614 -48.2613
   -48.2612 -48.2612 -48.2581 -48.2581 -48.2527 -48.2495 -48.2493 -48.2307
   -48.2307 -48.2150 -48.2090 -48.2090 -48.0254 -48.0254 -48.0252 -48.0252
   -47.9825 -47.9819 -47.9742 -47.9741 -47.9645 -47.9645 -47.9642 -47.9642
    -0.0699   0.5739   1.0921   1.1061   1.1061   1.1813   1.2291   1.2291
     1.2503   1.3878   1.4162   1.4162   1.5696   1.5751   1.5751   1.6919
     1.7162   1.8791   1.8793   2.0541   2.1381   2.1381   2.2961   2.4339
     2.5672   2.5672   2.8263   2.8263   2.8322   2.8322   3.2282   3.2282
     3.2411   3.2675   3.3795   3.4564   3.5501   3.5501   3.5729   3.5808
     3.5809   3.6718   3.6718   3.7681   3.8563   3.8563   3.9714   4.0404
     4.0404   4.0547   4.0548   4.1093   4.1187   4.1187   4.1376   4.1878
     4.2652   4.2652   4.2990   4.2991   4.3407   4.3408   4.5659   4.5661
     5.8551   7.5946   8.5644   9.1722   9.1722  10.2836  10.2836  10.8742
    11.6655  11.7938  11.7938  13.4571  13.4571  13.4590  13.4590  13.4914
    13.5882  13.5882  13.8101  13.8103  14.4904  15.1479  15.1479  15.2733
    15.2734

     occupation numbers 
     1.0000   1.0000   1.0000   1.0000   1.0000   1.0000   1.0000   1.0000
     1.0000   1.0000   1.0000   1.0000   1.0000   1.0000   1.0000   1.0000
     1.0000   1.0000   1.0000   1.0000   1.0000   1.0000   1.0000   1.0000
     1.0000   1.0000   1.0000   1.0000   1.0000   1.0000   1.0000   1.0000
     1.0000   1.0000   1.0000   1.0000   1.0000   1.0000   1.0000   1.0000
     1.0000   1.0000   1.0000   1.0000   1.0000   1.0000   1.0000   1.0000
     1.0000   1.0000   1.0000   1.0000   1.0000   1.0000   1.0000   1.0000
     1.0000   1.0000   1.0000   1.0000   1.0000   1.0000   1.0000   1.0000
     1.0000   1.0000   1.0000   1.0000   1.0000   1.0000   1.0000   1.0000
     1.0000   1.0000   1.0000   1.0000   1.0000   1.0000   1.0000   1.0000
     1.0000   1.0000   1.0000   1.0000   1.0000   1.0000   1.0000   1.0000
     1.0000   1.0000   1.0000   1.0000   1.0000   1.0000   1.0000   1.0000
     1.0000   1.0000   1.0000   1.0000   1.0000   1.0000   1.0000   1.0000
     1.0000   1.0000   1.0000   1.0000   1.0000   1.0000   1.0000   1.0000
     1.0000   0.0000   0.0000   0.0000   0.0000   0.0000   0.0000   0.0000
     0.0000   0.0000   0.0000   0.0000   0.0000   0.0000   0.0000   0.0000
     0.0000   0.0000   0.0000   0.0000   0.0000   0.0000   0.0000   0.0000
     0.0000

          k = 0.0000 0.2500 0.0000 (  7290 PWs)   bands (ev):

   -84.8199 -84.8197 -84.8130 -84.8129 -84.8005 -84.7933 -84.7920 -84.7907
   -84.5245 -84.5244 -84.5184 -84.5182 -48.3192 -48.3163 -48.3160 -48.3130
   -48.3093 -48.2942 -48.2930 -48.2824 -48.2757 -48.2731 -48.2710 -48.2686
   -48.2675 -48.2639 -48.2533 -48.2509 -48.2498 -48.2421 -48.2392 -48.2385
   -48.2369 -48.2166 -48.2155 -48.2146 -48.0160 -48.0158 -48.0158 -48.0156
   -47.9815 -47.9809 -47.9749 -47.9747 -47.9734 -47.9729 -47.9728 -47.9725
     0.5134   1.0806   1.3409   1.3673   1.3939   1.4003   1.4363   1.4575
     1.6102   1.6286   1.6418   1.6961   1.7095   1.7517   1.9002   1.9044
     2.0534   2.1380   2.1428   2.1540   2.1724   2.2004   2.2625   2.6078
     2.6255   2.6950   2.6955   2.7020   2.7296   2.7650   2.8157   3.0008
     3.1863   3.2211   3.2289   3.2461   3.2709   3.2796   3.3747   3.4657
     3.4890   3.5679   3.5965   3.6314   3.6908   3.7097   3.7324   3.7759
     3.7771   3.7945   3.8410   3.9100   3.9185   3.9314   3.9781   3.9801
     3.9851   4.0134   4.0511   4.1702   4.2570   4.2583   4.2759   5.2045
     6.4868   6.7762   7.4126   8.4882   8.6122   9.6653   9.9701  10.4677
    11.4299  11.4603  11.4954  12.1658  12.8060  13.0577  13.8266  14.0323
    14.0333  14.3774  14.5841  14.6969  14.7581  15.3645  16.0214  16.0243
    16.1169

     occupation numbers 
     1.0000   1.0000   1.0000   1.0000   1.0000   1.0000   1.0000   1.0000
     1.0000   1.0000   1.0000   1.0000   1.0000   1.0000   1.0000   1.0000
     1.0000   1.0000   1.0000   1.0000   1.0000   1.0000   1.0000   1.0000
     1.0000   1.0000   1.0000   1.0000   1.0000   1.0000   1.0000   1.0000
     1.0000   1.0000   1.0000   1.0000   1.0000   1.0000   1.0000   1.0000
     1.0000   1.0000   1.0000   1.0000   1.0000   1.0000   1.0000   1.0000
     1.0000   1.0000   1.0000   1.0000   1.0000   1.0000   1.0000   1.0000
     1.0000   1.0000   1.0000   1.0000   1.0000   1.0000   1.0000   1.0000
     1.0000   1.0000   1.0000   1.0000   1.0000   1.0000   1.0000   1.0000
     1.0000   1.0000   1.0000   1.0000   1.0000   1.0000   1.0000   1.0000
     1.0000   1.0000   1.0000   1.0000   1.0000   1.0000   1.0000   1.0000
     1.0000   1.0000   1.0000   1.0000   1.0000   1.0000   1.0000   1.0000
     1.0000   1.0000   1.0000   1.0000   1.0000   1.0000   1.0000   1.0000
     1.0000   1.0000   1.0000   1.0000   1.0000   1.0000   1.0000   1.0000
     1.0000   1.0000   0.0007   0.0000   0.0000   0.0000   0.0000   0.0000
     0.0000   0.0000   0.0000   0.0000   0.0000   0.0000   0.0000   0.0000
     0.0000   0.0000   0.0000   0.0000   0.0000   0.0000   0.0000   0.0000
     0.0000

          k = 0.0000-0.5000 0.0000 (  7282 PWs)   bands (ev):

   -84.8163 -84.8163 -84.8162 -84.8162 -84.7964 -84.7964 -84.7920 -84.7920
   -84.5214 -84.5214 -84.5213 -84.5212 -48.3007 -48.3007 -48.2990 -48.2990
   -48.2944 -48.2944 -48.2898 -48.2898 -48.2821 -48.2821 -48.2820 -48.2820
   -48.2729 -48.2729 -48.2601 -48.2601 -48.2407 -48.2407 -48.2350 -48.2349
   -48.2277 -48.2276 -48.2231 -48.2231 -47.9945 -47.9945 -47.9943 -47.9943
   -47.9939 -47.9939 -47.9937 -47.9937 -47.9774 -47.9774 -47.9773 -47.9772
     1.5689   1.5689   1.7804   1.7804   1.8288   1.8288   1.9360   1.9360
     1.9735   1.9735   2.0175   2.0175   2.0863   2.0863   2.1563   2.1563
     2.2150   2.2150   2.2533   2.2533   2.2577   2.2578   2.2669   2.2669
     2.4796   2.4796   2.6922   2.6922   2.6927   2.6927   2.8725   2.8725
     3.0981   3.0981   3.0997   3.0997   3.2161   3.2161   3.2301   3.2302
     3.2803   3.2803   3.2893   3.2893   3.3524   3.3524   3.4753   3.4753
     3.4888   3.4888   3.5165   3.5166   3.6271   3.6271   3.6483   3.6483
     3.9786   3.9786   3.9882   3.9882   4.2435   4.2435   4.7240   4.7240
     5.7312   5.7312   7.0557   7.0558   8.7024   8.7025  10.4841  10.4843
    11.9257  11.9260  13.1476  13.1476  13.2290  13.2292  13.5666  13.5672
    13.9798  13.9798  14.4823  14.4824  14.9049  14.9049  15.2063  15.2063
    15.7656

     occupation numbers 
     1.0000   1.0000   1.0000   1.0000   1.0000   1.0000   1.0000   1.0000
     1.0000   1.0000   1.0000   1.0000   1.0000   1.0000   1.0000   1.0000
     1.0000   1.0000   1.0000   1.0000   1.0000   1.0000   1.0000   1.0000
     1.0000   1.0000   1.0000   1.0000   1.0000   1.0000   1.0000   1.0000
     1.0000   1.0000   1.0000   1.0000   1.0000   1.0000   1.0000   1.0000
     1.0000   1.0000   1.0000   1.0000   1.0000   1.0000   1.0000   1.0000
     1.0000   1.0000   1.0000   1.0000   1.0000   1.0000   1.0000   1.0000
     1.0000   1.0000   1.0000   1.0000   1.0000   1.0000   1.0000   1.0000
     1.0000   1.0000   1.0000   1.0000   1.0000   1.0000   1.0000   1.0000
     1.0000   1.0000   1.0000   1.0000   1.0000   1.0000   1.0000   1.0000
     1.0000   1.0000   1.0000   1.0000   1.0000   1.0000   1.0000   1.0000
     1.0000   1.0000   1.0000   1.0000   1.0000   1.0000   1.0000   1.0000
     1.0000   1.0000   1.0000   1.0000   1.0000   1.0000   1.0000   1.0000
     1.0000   1.0000   1.0000   1.0000   1.0000   1.0000   1.0000   1.0000
     1.0000   1.0000   1.0000   1.0000   0.0000   0.0000   0.0000   0.0000
     0.0000   0.0000   0.0000   0.0000   0.0000   0.0000   0.0000   0.0000
     0.0000   0.0000   0.0000   0.0000   0.0000   0.0000   0.0000   0.0000
     0.0000

          k = 0.2500 0.2500 0.0000 (  7274 PWs)   bands (ev):

   -84.8187 -84.8186 -84.8138 -84.8138 -84.7992 -84.7932 -84.7923 -84.7922
   -84.5236 -84.5234 -84.5193 -84.5191 -48.3267 -48.3266 -48.3108 -48.3096
   -48.3095 -48.3006 -48.2944 -48.2876 -48.2798 -48.2797 -48.2644 -48.2602
   -48.2602 -48.2548 -48.2532 -48.2496 -48.2463 -48.2461 -48.2370 -48.2369
   -48.2268 -48.2251 -48.2181 -48.2098 -48.0268 -48.0266 -47.9961 -47.9958
   -47.9920 -47.9918 -47.9796 -47.9792 -47.9755 -47.9753 -47.9613 -47.9609
     0.9368   1.1835   1.3908   1.4218   1.5196   1.5196   1.5275   1.5275
     1.7165   1.7165   1.7413   1.7447   1.8729   1.9019   1.9020   2.1138
     2.1681   2.1683   2.3538   2.3540   2.3988   2.5049   2.6082   2.7110
     2.7148   2.7278   2.7413   2.8619   2.9085   2.9173   2.9173   2.9397
     3.0346   3.0347   3.0690   3.0873   3.1527   3.1527   3.1733   3.2561
     3.2735   3.2737   3.3496   3.3856   3.3927   3.3927   3.6006   3.6375
     3.6661   3.7335   3.7336   3.7416   3.9150   3.9645   3.9645   4.0841
     4.1400   4.1400   4.1611   4.1917   4.1997   4.1998   4.2733   5.6525
     7.3966   7.5371   7.5371   8.2226   8.2226   9.1885   9.1886   9.1920
    10.5382  10.6984  10.6985  12.0490  12.2753  12.2754  12.4179  12.6788
    13.2000  14.0175  14.0175  14.3147  14.6017  15.2555  15.4714  15.4716
    15.6837

     occupation numbers 
     1.0000   1.0000   1.0000   1.0000   1.0000   1.0000   1.0000   1.0000
     1.0000   1.0000   1.0000   1.0000   1.0000   1.0000   1.0000   1.0000
     1.0000   1.0000   1.0000   1.0000   1.0000   1.0000   1.0000   1.0000
     1.0000   1.0000   1.0000   1.0000   1.0000   1.0000   1.0000   1.0000
     1.0000   1.0000   1.0000   1.0000   1.0000   1.0000   1.0000   1.0000
     1.0000   1.0000   1.0000   1.0000   1.0000   1.0000   1.0000   1.0000
     1.0000   1.0000   1.0000   1.0000   1.0000   1.0000   1.0000   1.0000
     1.0000   1.0000   1.0000   1.0000   1.0000   1.0000   1.0000   1.0000
     1.0000   1.0000   1.0000   1.0000   1.0000   1.0000   1.0000   1.0000
     1.0000   1.0000   1.0000   1.0000   1.0000   1.0000   1.0000   1.0000
     1.0000   1.0000   1.0000   1.0000   1.0000   1.0000   1.0000   1.0000
     1.0000   1.0000   1.0000   1.0000   1.0000   1.0000   1.0000   1.0000
     1.0000   1.0000   1.0000   1.0000   1.0000   1.0000   1.0000   1.0000
     1.0000   1.0000   1.0000   1.0000   1.0000   1.0000   1.0000   1.0000
     0.0041   0.0000   0.0000   0.0000   0.0000   0.0000   0.0000   0.0000
     0.0000   0.0000   0.0000   0.0000   0.0000   0.0000   0.0000   0.0000
     0.0000   0.0000   0.0000   0.0000   0.0000   0.0000   0.0000   0.0000
     0.0000

          k = 0.2500-0.5000 0.0000 (  7280 PWs)   bands (ev):

   -84.8161 -84.8161 -84.8161 -84.8161 -84.7959 -84.7958 -84.7928 -84.7928
   -84.5214 -84.5214 -84.5213 -84.5212 -48.3246 -48.3246 -48.3199 -48.3199
   -48.3091 -48.3091 -48.2958 -48.2958 -48.2718 -48.2718 -48.2626 -48.2626
   -48.2606 -48.2606 -48.2515 -48.2515 -48.2332 -48.2332 -48.2307 -48.2307
   -48.2255 -48.2255 -48.2221 -48.2221 -48.0189 -48.0189 -48.0187 -48.0187
   -47.9774 -47.9774 -47.9772 -47.9772 -47.9690 -47.9689 -47.9687 -47.9687
     1.3765   1.3765   1.3782   1.3782   1.6180   1.6180   1.6489   1.6489
     1.9388   1.9388   2.0308   2.0308   2.0814   2.0814   2.1765   2.1765
     2.4136   2.4136   2.4481   2.4481   2.4850   2.4850   2.5321   2.5321
     2.5768   2.5768   2.7117   2.7117   2.7510   2.7510   2.8471   2.8471
     2.9130   2.9130   2.9294   2.9294   3.1037   3.1037   3.1205   3.1205
     3.2941   3.2941   3.3589   3.3589   3.4798   3.4798   3.7163   3.7163
     3.7533   3.7533   3.7856   3.7856   3.9731   3.9731   3.9825   3.9825
     4.0503   4.0504   4.0626   4.0626   4.7313   4.7313   5.0893   5.0893
     5.9926   5.9926   7.3542   7.3542   8.9662   8.9662   9.5770   9.5770
    10.4648  10.4648  10.8060  10.8061  11.7668  11.7668  12.4100  12.4101
    13.0016  13.0018  13.8984  13.8985  14.1379  14.1385  14.3325  14.3326
    15.9307

     occupation numbers 
     1.0000   1.0000   1.0000   1.0000   1.0000   1.0000   1.0000   1.0000
     1.0000   1.0000   1.0000   1.0000   1.0000   1.0000   1.0000   1.0000
     1.0000   1.0000   1.0000   1.0000   1.0000   1.0000   1.0000   1.0000
     1.0000   1.0000   1.0000   1.0000   1.0000   1.0000   1.0000   1.0000
     1.0000   1.0000   1.0000   1.0000   1.0000   1.0000   1.0000   1.0000
     1.0000   1.0000   1.0000   1.0000   1.0000   1.0000   1.0000   1.0000
     1.0000   1.0000   1.0000   1.0000   1.0000   1.0000   1.0000   1.0000
     1.0000   1.0000   1.0000   1.0000   1.0000   1.0000   1.0000   1.0000
     1.0000   1.0000   1.0000   1.0000   1.0000   1.0000   1.0000   1.0000
     1.0000   1.0000   1.0000   1.0000   1.0000   1.0000   1.0000   1.0000
     1.0000   1.0000   1.0000   1.0000   1.0000   1.0000   1.0000   1.0000
     1.0000   1.0000   1.0000   1.0000   1.0000   1.0000   1.0000   1.0000
     1.0000   1.0000   1.0000   1.0000   1.0000   1.0000   1.0000   1.0000
     1.0000   1.0000   1.0000   1.0000   1.0000   1.0000   1.0000   1.0000
     1.0000   1.0000   0.1206   0.1205   0.0000   0.0000   0.0000   0.0000
     0.0000   0.0000   0.0000   0.0000   0.0000   0.0000   0.0000   0.0000
     0.0000   0.0000   0.0000   0.0000   0.0000   0.0000   0.0000   0.0000
     0.0000

          k =-0.5000-0.5000 0.0000 (  7300 PWs)   bands (ev):

   -84.8160 -84.8160 -84.8159 -84.8159 -84.7945 -84.7945 -84.7944 -84.7944
   -84.5215 -84.5215 -84.5213 -84.5213 -48.3346 -48.3346 -48.3346 -48.3346
   -48.3126 -48.3125 -48.3125 -48.3125 -48.2597 -48.2597 -48.2597 -48.2597
   -48.2486 -48.2486 -48.2485 -48.2485 -48.2319 -48.2319 -48.2319 -48.2319
   -48.2186 -48.2185 -48.2184 -48.2184 -48.0292 -48.0292 -48.0290 -48.0290
   -47.9773 -47.9773 -47.9772 -47.9771 -47.9591 -47.9591 -47.9589 -47.9589
     1.1388   1.1388   1.1388   1.1388   1.4808   1.4808   1.4808   1.4808
     1.9869   1.9869   1.9870   1.9870   2.3781   2.3781   2.3781   2.3781
     2.4054   2.4054   2.4055   2.4055   2.5306   2.5306   2.5307   2.5307
     2.5438   2.5438   2.5438   2.5438   2.7855   2.7855   2.7855   2.7855
     2.9633   2.9633   2.9633   2.9633   3.1533   3.1533   3.1534   3.1534
     3.5860   3.5860   3.5860   3.5860   3.6573   3.6573   3.6573   3.6573
     3.9385   3.9385   3.9385   3.9385   4.0466   4.0466   4.0467   4.0467
     4.1018   4.1018   4.1019   4.1019   6.5623   6.5623   6.5624   6.5624
     6.7138   6.7138   6.7139   6.7139   7.3200   7.3200   7.3202   7.3202
     9.8148   9.8148   9.8149   9.8150  11.4592  11.4593  11.4593  11.4593
    13.2210  13.2211  13.2211  13.2212  14.5230  14.5238  14.5238  14.5240
    15.6621

     occupation numbers 
     1.0000   1.0000   1.0000   1.0000   1.0000   1.0000   1.0000   1.0000
     1.0000   1.0000   1.0000   1.0000   1.0000   1.0000   1.0000   1.0000
     1.0000   1.0000   1.0000   1.0000   1.0000   1.0000   1.0000   1.0000
     1.0000   1.0000   1.0000   1.0000   1.0000   1.0000   1.0000   1.0000
     1.0000   1.0000   1.0000   1.0000   1.0000   1.0000   1.0000   1.0000
     1.0000   1.0000   1.0000   1.0000   1.0000   1.0000   1.0000   1.0000
     1.0000   1.0000   1.0000   1.0000   1.0000   1.0000   1.0000   1.0000
     1.0000   1.0000   1.0000   1.0000   1.0000   1.0000   1.0000   1.0000
     1.0000   1.0000   1.0000   1.0000   1.0000   1.0000   1.0000   1.0000
     1.0000   1.0000   1.0000   1.0000   1.0000   1.0000   1.0000   1.0000
     1.0000   1.0000   1.0000   1.0000   1.0000   1.0000   1.0000   1.0000
     1.0000   1.0000   1.0000   1.0000   1.0000   1.0000   1.0000   1.0000
     1.0000   1.0000   1.0000   1.0000   1.0000   1.0000   1.0000   1.0000
     1.0000   1.0000   1.0000   1.0000   1.0000   1.0000   1.0000   1.0000
     1.0000   1.0000   1.0000   1.0000   0.5055   0.5054   0.5027   0.5027
     0.0000   0.0000   0.0000   0.0000   0.0000   0.0000   0.0000   0.0000
     0.0000   0.0000   0.0000   0.0000   0.0000   0.0000   0.0000   0.0000
     0.0000

     the Fermi energy is     7.3204 ev

!    total energy              =   -3547.23006822 Ry
     estimated scf accuracy    <       0.00000028 Ry
     smearing contrib. (-TS)   =      -0.00086432 Ry
     internal energy E=F+TS    =   -3547.22920390 Ry

     The total energy is F=E-TS. E is the sum of the following terms:
     one-electron contribution =  -16751.43730366 Ry
     hartree contribution      =    8408.26042098 Ry
     xc contribution           =    -347.40154537 Ry
     ewald contribution        =    5143.34922415 Ry

     convergence has been achieved in  16 iterations

     negative rho (up, down):  1.439E-03 0.000E+00

     Forces acting on atoms (cartesian axes, Ry/au):

     atom    1 type  1   force =     0.00000000    0.00000000    0.00413661
     atom    2 type  1   force =     0.00000000    0.00000000    0.00113210
     atom    3 type  1   force =     0.00000000    0.00000000    0.00346382
     atom    4 type  1   force =     0.00000000    0.00000000   -0.00355107
     atom    5 type  1   force =     0.00000000    0.00000000   -0.00125476
     atom    6 type  1   force =     0.00000000    0.00000000   -0.00393393
     atom    7 type  1   force =     0.00000000    0.00000000   -0.00355107
     atom    8 type  1   force =     0.00000000    0.00000000   -0.00125476
     atom    9 type  1   force =     0.00000000    0.00000000   -0.00393393
     atom   10 type  1   force =     0.00000000    0.00000000    0.00413709
     atom   11 type  1   force =     0.00000000    0.00000000    0.00113502
     atom   12 type  1   force =     0.00000000    0.00000000    0.00347491
     The non-local contrib.  to forces
     atom    1 type  1   force =     0.00000000    0.00000000   -0.20477481
     atom    2 type  1   force =     0.00000000    0.00000000   -0.01549900
     atom    3 type  1   force =     0.00000000    0.00000000    0.02415081
     atom    4 type  1   force =     0.00000000    0.00000000   -0.02460512
     atom    5 type  1   force =     0.00000000    0.00000000    0.01502212
     atom    6 type  1   force =     0.00000000    0.00000000    0.20476653
     atom    7 type  1   force =     0.00000000    0.00000000   -0.02460512
     atom    8 type  1   force =     0.00000000    0.00000000    0.01502212
     atom    9 type  1   force =     0.00000000    0.00000000    0.20476653
     atom   10 type  1   force =     0.00000000    0.00000000   -0.20478201
     atom   11 type  1   force =     0.00000000    0.00000000   -0.01549679
     atom   12 type  1   force =     0.00000000    0.00000000    0.02415961
     The ionic contribution  to forces
     atom    1 type  1   force =    -0.00000000   -0.00000000 -320.72921573
     atom    2 type  1   force =    -0.00000000   -0.00000000  -65.28498738
     atom    3 type  1   force =    -0.00000000   -0.00000000  195.94015884
     atom    4 type  1   force =    -0.00000000    0.00000000 -195.94015884
     atom    5 type  1   force =    -0.00000000    0.00000000   65.28498738
     atom    6 type  1   force =     0.00000000    0.00000000  320.72921573
     atom    7 type  1   force =     0.00000000   -0.00000000 -195.94015884
     atom    8 type  1   force =     0.00000000    0.00000000   65.28498738
     atom    9 type  1   force =     0.00000000    0.00000000  320.72921573
     atom   10 type  1   force =    -0.00000000    0.00000000 -320.72921573
     atom   11 type  1   force =     0.00000000    0.00000000  -65.28498738
     atom   12 type  1   force =     0.00000000    0.00000000  195.94015884
     The local contribution  to forces
     atom    1 type  1   force =     0.00000000    0.00000000  320.93686847
     atom    2 type  1   force =     0.00000000   -0.00000000   65.30296390
     atom    3 type  1   force =     0.00000000   -0.00000000 -195.95951799
     atom    4 type  1   force =     0.00000000    0.00000000  195.96231889
     atom    5 type  1   force =     0.00000000    0.00000000  -65.29949256
     atom    6 type  1   force =     0.00000000   -0.00000000 -320.93704562
     atom    7 type  1   force =     0.00000000    0.00000000  195.96231889
     atom    8 type  1   force =     0.00000000    0.00000000  -65.29949256
     atom    9 type  1   force =    -0.00000000    0.00000000 -320.93704562
     atom   10 type  1   force =     0.00000000    0.00000000  320.93687652
     atom   11 type  1   force =    -0.00000000   -0.00000000   65.30296435
     atom   12 type  1   force =    -0.00000000   -0.00000000 -195.95951715
     The core correction contribution to forces
     atom    1 type  1   force =    -0.00000000    0.00000000    0.00133598
     atom    2 type  1   force =    -0.00000000    0.00000000    0.00012336
     atom    3 type  1   force =     0.00000000   -0.00000000   -0.00001897
     atom    4 type  1   force =    -0.00000000   -0.00000000    0.00001953
     atom    5 type  1   force =     0.00000000    0.00000000   -0.00012407
     atom    6 type  1   force =    -0.00000000   -0.00000000   -0.00133608
     atom    7 type  1   force =    -0.00000000    0.00000000    0.00001953
     atom    8 type  1   force =     0.00000000   -0.00000000   -0.00012407
     atom    9 type  1   force =    -0.00000000    0.00000000   -0.00133608
     atom   10 type  1   force =    -0.00000000   -0.00000000    0.00133589
     atom   11 type  1   force =    -0.00000000   -0.00000000    0.00012312
     atom   12 type  1   force =    -0.00000000   -0.00000000   -0.00001801
     The Hubbard contrib.    to forces
     atom    1 type  1   force =     0.00000000    0.00000000    0.00000000
     atom    2 type  1   force =     0.00000000    0.00000000    0.00000000
     atom    3 type  1   force =     0.00000000    0.00000000    0.00000000
     atom    4 type  1   force =     0.00000000    0.00000000    0.00000000
     atom    5 type  1   force =     0.00000000    0.00000000    0.00000000
     atom    6 type  1   force =     0.00000000    0.00000000    0.00000000
     atom    7 type  1   force =     0.00000000    0.00000000    0.00000000
     atom    8 type  1   force =     0.00000000    0.00000000    0.00000000
     atom    9 type  1   force =     0.00000000    0.00000000    0.00000000
     atom   10 type  1   force =     0.00000000    0.00000000    0.00000000
     atom   11 type  1   force =     0.00000000    0.00000000    0.00000000
     atom   12 type  1   force =     0.00000000    0.00000000    0.00000000
     The SCF correction term to forces
     atom    1 type  1   force =    -0.00000000   -0.00000000   -0.00019513
     atom    2 type  1   force =     0.00000000    0.00000000   -0.00158662
     atom    3 type  1   force =     0.00000000    0.00000000   -0.00142670
     atom    4 type  1   force =    -0.00000000    0.00000000   -0.00124337
     atom    5 type  1   force =     0.00000000   -0.00000000   -0.00176548
     atom    6 type  1   force =     0.00000000    0.00000000    0.00034766
     atom    7 type  1   force =     0.00000000    0.00000000   -0.00124337
     atom    8 type  1   force =     0.00000000    0.00000000   -0.00176548
     atom    9 type  1   force =     0.00000000    0.00000000    0.00034766
     atom   10 type  1   force =     0.00000000    0.00000000   -0.00019542
     atom   11 type  1   force =    -0.00000000    0.00000000   -0.00158612
     atom   12 type  1   force =     0.00000000   -0.00000000   -0.00142623

     Total force =     0.010963     Total SCF correction =     0.004330
     SCF correction compared to forces is large: reduce conv_thr to get better values


     Computing stress (Cartesian axis) and pressure


     negative rho (up, down):  1.439E-03 0.000E+00
          total   stress  (Ry/bohr**3)                   (kbar)     P=      -66.59
  -0.00047679   0.00000000   0.00000000          -70.14        0.00        0.00
   0.00000000  -0.00047679   0.00000000            0.00      -70.14        0.00
   0.00000000   0.00000000  -0.00040443            0.00        0.00      -59.49

     kinetic stress (kbar)  30027.20      0.00      0.00
                                0.00  30027.20      0.00
                                0.00      0.00  30080.93

     local   stress (kbar)-845138.17      0.00     -0.00
                                0.00-845138.17      0.00
                               -0.00      0.00 848730.03

     nonloc. stress (kbar)   3527.28      0.00      0.00
                                0.00   3527.28      0.00
                                0.00      0.00   3516.16

     hartree stress (kbar) 436720.19     -0.00     -0.00
                               -0.00 436720.19     -0.00
                               -0.00     -0.00-402454.88

     exc-cor stress (kbar)  -5415.38      0.00      0.00
                                0.00  -5415.38      0.00
                                0.00      0.00  -5419.03

     corecor stress (kbar)   -732.66     -0.00     -0.00
                               -0.00   -732.66      0.00
                               -0.00      0.00   -732.65

     ewald   stress (kbar) 380941.40     -0.00     -0.00
                               -0.00 380941.40     -0.00
                               -0.00     -0.00-473780.06

     hubbard stress (kbar)      0.00      0.00      0.00
                                0.00      0.00      0.00
                                0.00      0.00      0.00

     DFT-D   stress (kbar)      0.00      0.00      0.00
                                0.00      0.00      0.00
                                0.00      0.00      0.00

     XDM     stress (kbar)      0.00      0.00      0.00
                                0.00      0.00      0.00
                                0.00      0.00      0.00

     dft-nl  stress (kbar)      0.00      0.00      0.00
                                0.00      0.00      0.00
                                0.00      0.00      0.00

     TS-vdW  stress (kbar)      0.00      0.00      0.00
                                0.00      0.00      0.00
                                0.00      0.00      0.00



     BFGS Geometry Optimization
     Energy error            =      0.0E+00
     Gradient error          =      4.1E-03

     number of scf cycles    =   1
     number of bfgs steps    =   0

     energy   new            =   -3547.2300682223 Ry

     new trust radius        =       0.0041370868 bohr
     new conv_thr            =       0.0000010000 Ry


ATOMIC_POSITIONS (angstrom)
Ag            0.0000000000        0.0000000000        0.0021889984
Ag            0.0000000000        0.0000000000        4.1611490808
Ag            0.0000000000        0.0000000000        8.3229329771
Ag            0.0000000000        2.0802750000        2.0783958526
Ag            0.0000000000        2.0802750000        6.2401610072
Ag            0.0000000000        2.0802750000       10.3992932516
Ag            2.0802750000        0.0000000000        2.0783958526
Ag            2.0802750000        0.0000000000        6.2401610072
Ag            2.0802750000        0.0000000000       10.3992932516
Ag            2.0802750000        2.0802750000        0.0021892520
Ag            2.0802750000        2.0802750000        4.1611506269
Ag            2.0802750000        2.0802750000        8.3229388421



     Writing output data file ./surface.save/
     NEW-OLD atomic charge density approx. for the potential

     negative rho (up, down):  1.443E-03 0.000E+00

     total cpu time spent up to now is       31.1 secs

     Self-consistent Calculation

     iteration #  1     ecut=    30.00 Ry     beta= 0.30
     Davidson diagonalization with overlap
     ethr =  1.00E-06,  avg # of iterations =  3.0

     negative rho (up, down):  1.444E-03 0.000E+00

     total cpu time spent up to now is       33.4 secs

     total energy              =   -3547.22931645 Ry
     estimated scf accuracy    <       0.00177631 Ry

     iteration #  2     ecut=    30.00 Ry     beta= 0.30
     Davidson diagonalization with overlap
     ethr =  7.79E-07,  avg # of iterations =  9.8

     negative rho (up, down):  1.443E-03 0.000E+00

     total cpu time spent up to now is       35.9 secs

     total energy              =   -3547.22757499 Ry
     estimated scf accuracy    <       0.14783766 Ry

     iteration #  3     ecut=    30.00 Ry     beta= 0.30
     Davidson diagonalization with overlap
     ethr =  7.79E-07,  avg # of iterations =  7.2

     negative rho (up, down):  1.443E-03 0.000E+00

     total cpu time spent up to now is       38.0 secs

     total energy              =   -3547.23015494 Ry
     estimated scf accuracy    <       0.00340619 Ry

     iteration #  4     ecut=    30.00 Ry     beta= 0.30
     Davidson diagonalization with overlap
     ethr =  7.79E-07,  avg # of iterations =  1.3

     negative rho (up, down):  1.443E-03 0.000E+00

     total cpu time spent up to now is       39.4 secs

     total energy              =   -3547.23017887 Ry
     estimated scf accuracy    <       0.00013227 Ry

     iteration #  5     ecut=    30.00 Ry     beta= 0.30
     Davidson diagonalization with overlap
     ethr =  5.80E-08,  avg # of iterations =  1.0

     negative rho (up, down):  1.443E-03 0.000E+00

     total cpu time spent up to now is       40.8 secs

     total energy              =   -3547.23018274 Ry
     estimated scf accuracy    <       0.00012720 Ry

     iteration #  6     ecut=    30.00 Ry     beta= 0.30
     Davidson diagonalization with overlap
     ethr =  5.58E-08,  avg # of iterations =  1.0

     negative rho (up, down):  1.443E-03 0.000E+00

     total cpu time spent up to now is       42.1 secs

     total energy              =   -3547.23018318 Ry
     estimated scf accuracy    <       0.00001979 Ry

     iteration #  7     ecut=    30.00 Ry     beta= 0.30
     Davidson diagonalization with overlap
     ethr =  8.68E-09,  avg # of iterations =  1.0

     negative rho (up, down):  1.443E-03 0.000E+00

     total cpu time spent up to now is       43.5 secs

     total energy              =   -3547.23018352 Ry
     estimated scf accuracy    <       0.00000705 Ry

     iteration #  8     ecut=    30.00 Ry     beta= 0.30
     Davidson diagonalization with overlap
     ethr =  3.09E-09,  avg # of iterations =  1.0

     negative rho (up, down):  1.443E-03 0.000E+00

     total cpu time spent up to now is       44.9 secs

     total energy              =   -3547.23018368 Ry
     estimated scf accuracy    <       0.00000425 Ry

     iteration #  9     ecut=    30.00 Ry     beta= 0.30
     Davidson diagonalization with overlap
     ethr =  1.86E-09,  avg # of iterations =  1.0

     negative rho (up, down):  1.443E-03 0.000E+00

     total cpu time spent up to now is       46.2 secs

     End of self-consistent calculation

          k = 0.0000 0.0000 0.0000 (  7307 PWs)   bands (ev):

   -84.8217 -84.8213 -84.8118 -84.8118 -84.8029 -84.7944 -84.7908 -84.7908
   -84.5262 -84.5261 -84.5175 -84.5174 -48.3314 -48.3314 -48.3230 -48.3230
   -48.3153 -48.2916 -48.2913 -48.2913 -48.2621 -48.2621 -48.2615 -48.2615
   -48.2613 -48.2613 -48.2581 -48.2581 -48.2533 -48.2500 -48.2500 -48.2314
   -48.2314 -48.2156 -48.2096 -48.2096 -48.0256 -48.0256 -48.0254 -48.0254
   -47.9831 -47.9825 -47.9748 -47.9748 -47.9647 -47.9647 -47.9645 -47.9645
    -0.0701   0.5722   1.0920   1.1059   1.1059   1.1812   1.2290   1.2290
     1.2488   1.3868   1.4151   1.4151   1.5669   1.5736   1.5736   1.6895
     1.7127   1.8768   1.8768   2.0549   2.1335   2.1335   2.2981   2.4343
     2.5671   2.5671   2.8252   2.8252   2.8329   2.8329   3.2246   3.2246
     3.2429   3.2684   3.3811   3.4563   3.5520   3.5520   3.5725   3.5809
     3.5809   3.6722   3.6722   3.7654   3.8574   3.8574   3.9708   4.0418
     4.0418   4.0548   4.0548   4.1106   4.1189   4.1189   4.1384   4.1884
     4.2653   4.2653   4.2991   4.2991   4.3401   4.3402   4.5660   4.5661
     5.8565   7.5985   8.5670   9.1720   9.1720  10.2821  10.2821  10.8740
    11.6662  11.7920  11.7920  13.4566  13.4566  13.4663  13.4663  13.4913
    13.5886  13.5887  13.8127  13.8128  14.4919  15.1524  15.1524  15.2737
    15.2738

     occupation numbers 
     1.0000   1.0000   1.0000   1.0000   1.0000   1.0000   1.0000   1.0000
     1.0000   1.0000   1.0000   1.0000   1.0000   1.0000   1.0000   1.0000
     1.0000   1.0000   1.0000   1.0000   1.0000   1.0000   1.0000   1.0000
     1.0000   1.0000   1.0000   1.0000   1.0000   1.0000   1.0000   1.0000
     1.0000   1.0000   1.0000   1.0000   1.0000   1.0000   1.0000   1.0000
     1.0000   1.0000   1.0000   1.0000   1.0000   1.0000   1.0000   1.0000
     1.0000   1.0000   1.0000   1.0000   1.0000   1.0000   1.0000   1.0000
     1.0000   1.0000   1.0000   1.0000   1.0000   1.0000   1.0000   1.0000
     1.0000   1.0000   1.0000   1.0000   1.0000   1.0000   1.0000   1.0000
     1.0000   1.0000   1.0000   1.0000   1.0000   1.0000   1.0000   1.0000
     1.0000   1.0000   1.0000   1.0000   1.0000   1.0000   1.0000   1.0000
     1.0000   1.0000   1.0000   1.0000   1.0000   1.0000   1.0000   1.0000
     1.0000   1.0000   1.0000   1.0000   1.0000   1.0000   1.0000   1.0000
     1.0000   1.0000   1.0000   1.0000   1.0000   1.0000   1.0000   1.0000
     1.0000   0.0000   0.0000   0.0000   0.0000   0.0000   0.0000   0.0000
     0.0000   0.0000   0.0000   0.0000   0.0000   0.0000   0.0000   0.0000
     0.0000   0.0000   0.0000   0.0000   0.0000   0.0000   0.0000   0.0000
     0.0000

          k = 0.0000 0.2500 0.0000 (  7290 PWs)   bands (ev):

   -84.8201 -84.8198 -84.8131 -84.8131 -84.8012 -84.7940 -84.7927 -84.7914
   -84.5249 -84.5248 -84.5187 -84.5187 -48.3193 -48.3164 -48.3162 -48.3131
   -48.3097 -48.2948 -48.2932 -48.2831 -48.2761 -48.2733 -48.2711 -48.2687
   -48.2675 -48.2642 -48.2539 -48.2513 -48.2503 -48.2427 -48.2399 -48.2391
   -48.2376 -48.2173 -48.2162 -48.2152 -48.0162 -48.0160 -48.0160 -48.0159
   -47.9821 -47.9815 -47.9755 -47.9753 -47.9736 -47.9731 -47.9730 -47.9727
     0.5132   1.0790   1.3408   1.3670   1.3939   1.4002   1.4360   1.4574
     1.6089   1.6278   1.6412   1.6949   1.7081   1.7500   1.8966   1.9018
     2.0508   2.1356   2.1404   2.1537   2.1689   2.1958   2.2628   2.6090
     2.6263   2.6956   2.6959   2.6999   2.7293   2.7650   2.8145   2.9993
     3.1830   3.2217   3.2293   3.2440   3.2714   3.2790   3.3766   3.4641
     3.4886   3.5695   3.5963   3.6324   3.6909   3.7097   3.7331   3.7765
     3.7776   3.7957   3.8410   3.9110   3.9198   3.9313   3.9767   3.9801
     3.9844   4.0151   4.0511   4.1718   4.2571   4.2593   4.2767   5.2057
     6.4868   6.7781   7.4119   8.4917   8.6115   9.6675   9.9743  10.4676
    11.4289  11.4602  11.4984  12.1668  12.8046  13.0591  13.8266  14.0328
    14.0334  14.3835  14.5871  14.6988  14.7595  15.3642  16.0211  16.0283
    16.0719

     occupation numbers 
     1.0000   1.0000   1.0000   1.0000   1.0000   1.0000   1.0000   1.0000
     1.0000   1.0000   1.0000   1.0000   1.0000   1.0000   1.0000   1.0000
     1.0000   1.0000   1.0000   1.0000   1.0000   1.0000   1.0000   1.0000
     1.0000   1.0000   1.0000   1.0000   1.0000   1.0000   1.0000   1.0000
     1.0000   1.0000   1.0000   1.0000   1.0000   1.0000   1.0000   1.0000
     1.0000   1.0000   1.0000   1.0000   1.0000   1.0000   1.0000   1.0000
     1.0000   1.0000   1.0000   1.0000   1.0000   1.0000   1.0000   1.0000
     1.0000   1.0000   1.0000   1.0000   1.0000   1.0000   1.0000   1.0000
     1.0000   1.0000   1.0000   1.0000   1.0000   1.0000   1.0000   1.0000
     1.0000   1.0000   1.0000   1.0000   1.0000   1.0000   1.0000   1.0000
     1.0000   1.0000   1.0000   1.0000   1.0000   1.0000   1.0000   1.0000
     1.0000   1.0000   1.0000   1.0000   1.0000   1.0000   1.0000   1.0000
     1.0000   1.0000   1.0000   1.0000   1.0000   1.0000   1.0000   1.0000
     1.0000   1.0000   1.0000   1.0000   1.0000   1.0000   1.0000   1.0000
     1.0000   1.0000   0.0009   0.0000   0.0000   0.0000   0.0000   0.0000
     0.0000   0.0000   0.0000   0.0000   0.0000   0.0000   0.0000   0.0000
     0.0000   0.0000   0.0000   0.0000   0.0000   0.0000   0.0000   0.0000
     0.0000

          k = 0.0000-0.5000 0.0000 (  7282 PWs)   bands (ev):

   -84.8164 -84.8164 -84.8163 -84.8163 -84.7971 -84.7971 -84.7927 -84.7927
   -84.5218 -84.5218 -84.5217 -84.5217 -48.3009 -48.3009 -48.2991 -48.2991
   -48.2946 -48.2946 -48.2899 -48.2899 -48.2823 -48.2823 -48.2823 -48.2823
   -48.2734 -48.2734 -48.2608 -48.2608 -48.2414 -48.2414 -48.2356 -48.2356
   -48.2283 -48.2283 -48.2237 -48.2237 -47.9947 -47.9947 -47.9945 -47.9945
   -47.9941 -47.9941 -47.9939 -47.9939 -47.9780 -47.9780 -47.9779 -47.9779
     1.5688   1.5688   1.7802   1.7802   1.8289   1.8289   1.9352   1.9352
     1.9728   1.9728   2.0170   2.0170   2.0856   2.0856   2.1545   2.1545
     2.2112   2.2112   2.2526   2.2526   2.2573   2.2573   2.2653   2.2653
     2.4772   2.4772   2.6906   2.6906   2.6908   2.6909   2.8694   2.8694
     3.0981   3.0981   3.0996   3.0996   3.2138   3.2138   3.2309   3.2309
     3.2795   3.2795   3.2887   3.2887   3.3510   3.3510   3.4762   3.4762
     3.4912   3.4912   3.5172   3.5172   3.6293   3.6293   3.6485   3.6485
     3.9808   3.9808   3.9885   3.9886   4.2437   4.2437   4.7240   4.7240
     5.7311   5.7311   7.0591   7.0591   8.7051   8.7052  10.4867  10.4868
    11.9277  11.9280  13.1475  13.1475  13.2291  13.2292  13.5680  13.5686
    13.9793  13.9793  14.4820  14.4821  14.9055  14.9056  15.2058  15.2058
    15.7380

     occupation numbers 
     1.0000   1.0000   1.0000   1.0000   1.0000   1.0000   1.0000   1.0000
     1.0000   1.0000   1.0000   1.0000   1.0000   1.0000   1.0000   1.0000
     1.0000   1.0000   1.0000   1.0000   1.0000   1.0000   1.0000   1.0000
     1.0000   1.0000   1.0000   1.0000   1.0000   1.0000   1.0000   1.0000
     1.0000   1.0000   1.0000   1.0000   1.0000   1.0000   1.0000   1.0000
     1.0000   1.0000   1.0000   1.0000   1.0000   1.0000   1.0000   1.0000
     1.0000   1.0000   1.0000   1.0000   1.0000   1.0000   1.0000   1.0000
     1.0000   1.0000   1.0000   1.0000   1.0000   1.0000   1.0000   1.0000
     1.0000   1.0000   1.0000   1.0000   1.0000   1.0000   1.0000   1.0000
     1.0000   1.0000   1.0000   1.0000   1.0000   1.0000   1.0000   1.0000
     1.0000   1.0000   1.0000   1.0000   1.0000   1.0000   1.0000   1.0000
     1.0000   1.0000   1.0000   1.0000   1.0000   1.0000   1.0000   1.0000
     1.0000   1.0000   1.0000   1.0000   1.0000   1.0000   1.0000   1.0000
     1.0000   1.0000   1.0000   1.0000   1.0000   1.0000   1.0000   1.0000
     1.0000   1.0000   1.0000   1.0000   0.0000   0.0000   0.0000   0.0000
     0.0000   0.0000   0.0000   0.0000   0.0000   0.0000   0.0000   0.0000
     0.0000   0.0000   0.0000   0.0000   0.0000   0.0000   0.0000   0.0000
     0.0000

          k = 0.2500 0.2500 0.0000 (  7274 PWs)   bands (ev):

   -84.8188 -84.8187 -84.8140 -84.8139 -84.7999 -84.7938 -84.7930 -84.7929
   -84.5240 -84.5239 -84.5196 -84.5195 -48.3267 -48.3267 -48.3111 -48.3100
   -48.3100 -48.3008 -48.2945 -48.2878 -48.2799 -48.2799 -48.2650 -48.2606
   -48.2606 -48.2549 -48.2533 -48.2503 -48.2469 -48.2469 -48.2375 -48.2375
   -48.2275 -48.2258 -48.2187 -48.2104 -48.0269 -48.0269 -47.9962 -47.9960
   -47.9922 -47.9921 -47.9802 -47.9799 -47.9761 -47.9760 -47.9615 -47.9612
     0.9366   1.1825   1.3910   1.4219   1.5197   1.5198   1.5268   1.5268
     1.7160   1.7160   1.7387   1.7415   1.8721   1.9004   1.9004   2.1124
     2.1644   2.1645   2.3514   2.3514   2.3973   2.5024   2.6088   2.7111
     2.7144   2.7277   2.7411   2.8614   2.9067   2.9168   2.9168   2.9402
     3.0337   3.0337   3.0674   3.0872   3.1526   3.1526   3.1743   3.2571
     3.2735   3.2735   3.3462   3.3827   3.3943   3.3944   3.6013   3.6373
     3.6661   3.7351   3.7351   3.7426   3.9166   3.9647   3.9647   4.0857
     4.1396   4.1396   4.1611   4.1925   4.2000   4.2001   4.2738   5.6544
     7.3988   7.5369   7.5369   8.2221   8.2221   9.1880   9.1880   9.1951
    10.5402  10.7022  10.7023  12.0489  12.2767  12.2768  12.4178  12.6798
    13.1998  14.0200  14.0201  14.3142  14.6018  15.2575  15.4738  15.4738
    15.6860

     occupation numbers 
     1.0000   1.0000   1.0000   1.0000   1.0000   1.0000   1.0000   1.0000
     1.0000   1.0000   1.0000   1.0000   1.0000   1.0000   1.0000   1.0000
     1.0000   1.0000   1.0000   1.0000   1.0000   1.0000   1.0000   1.0000
     1.0000   1.0000   1.0000   1.0000   1.0000   1.0000   1.0000   1.0000
     1.0000   1.0000   1.0000   1.0000   1.0000   1.0000   1.0000   1.0000
     1.0000   1.0000   1.0000   1.0000   1.0000   1.0000   1.0000   1.0000
     1.0000   1.0000   1.0000   1.0000   1.0000   1.0000   1.0000   1.0000
     1.0000   1.0000   1.0000   1.0000   1.0000   1.0000   1.0000   1.0000
     1.0000   1.0000   1.0000   1.0000   1.0000   1.0000   1.0000   1.0000
     1.0000   1.0000   1.0000   1.0000   1.0000   1.0000   1.0000   1.0000
     1.0000   1.0000   1.0000   1.0000   1.0000   1.0000   1.0000   1.0000
     1.0000   1.0000   1.0000   1.0000   1.0000   1.0000   1.0000   1.0000
     1.0000   1.0000   1.0000   1.0000   1.0000   1.0000   1.0000   1.0000
     1.0000   1.0000   1.0000   1.0000   1.0000   1.0000   1.0000   1.0000
     0.0037   0.0000   0.0000   0.0000   0.0000   0.0000   0.0000   0.0000
     0.0000   0.0000   0.0000   0.0000   0.0000   0.0000   0.0000   0.0000
     0.0000   0.0000   0.0000   0.0000   0.0000   0.0000   0.0000   0.0000
     0.0000

          k = 0.2500-0.5000 0.0000 (  7280 PWs)   bands (ev):

   -84.8163 -84.8162 -84.8162 -84.8162 -84.7965 -84.7965 -84.7934 -84.7934
   -84.5218 -84.5218 -84.5217 -84.5217 -48.3248 -48.3248 -48.3200 -48.3200
   -48.3095 -48.3095 -48.2962 -48.2962 -48.2723 -48.2723 -48.2628 -48.2628
   -48.2607 -48.2607 -48.2519 -48.2519 -48.2339 -48.2339 -48.2314 -48.2313
   -48.2261 -48.2260 -48.2228 -48.2228 -48.0190 -48.0190 -48.0189 -48.0189
   -47.9780 -47.9780 -47.9778 -47.9778 -47.9691 -47.9691 -47.9690 -47.9690
     1.3758   1.3758   1.3786   1.3786   1.6163   1.6163   1.6486   1.6486
     1.9367   1.9367   2.0288   2.0288   2.0799   2.0799   2.1758   2.1758
     2.4125   2.4125   2.4456   2.4456   2.4849   2.4849   2.5319   2.5319
     2.5748   2.5748   2.7111   2.7111   2.7525   2.7525   2.8481   2.8481
     2.9107   2.9107   2.9268   2.9268   3.1032   3.1032   3.1208   3.1208
     3.2924   3.2924   3.3597   3.3597   3.4799   3.4799   3.7172   3.7172
     3.7529   3.7529   3.7868   3.7868   3.9737   3.9737   3.9840   3.9840
     4.0500   4.0500   4.0629   4.0629   4.7312   4.7312   5.0892   5.0892
     5.9918   5.9918   7.3571   7.3571   8.9683   8.9683   9.5768   9.5768
    10.4653  10.4654  10.8081  10.8082  11.7664  11.7664  12.4107  12.4108
    13.0044  13.0046  13.8989  13.8989  14.1391  14.1397  14.3354  14.3355
    15.9309

     occupation numbers 
     1.0000   1.0000   1.0000   1.0000   1.0000   1.0000   1.0000   1.0000
     1.0000   1.0000   1.0000   1.0000   1.0000   1.0000   1.0000   1.0000
     1.0000   1.0000   1.0000   1.0000   1.0000   1.0000   1.0000   1.0000
     1.0000   1.0000   1.0000   1.0000   1.0000   1.0000   1.0000   1.0000
     1.0000   1.0000   1.0000   1.0000   1.0000   1.0000   1.0000   1.0000
     1.0000   1.0000   1.0000   1.0000   1.0000   1.0000   1.0000   1.0000
     1.0000   1.0000   1.0000   1.0000   1.0000   1.0000   1.0000   1.0000
     1.0000   1.0000   1.0000   1.0000   1.0000   1.0000   1.0000   1.0000
     1.0000   1.0000   1.0000   1.0000   1.0000   1.0000   1.0000   1.0000
     1.0000   1.0000   1.0000   1.0000   1.0000   1.0000   1.0000   1.0000
     1.0000   1.0000   1.0000   1.0000   1.0000   1.0000   1.0000   1.0000
     1.0000   1.0000   1.0000   1.0000   1.0000   1.0000   1.0000   1.0000
     1.0000   1.0000   1.0000   1.0000   1.0000   1.0000   1.0000   1.0000
     1.0000   1.0000   1.0000   1.0000   1.0000   1.0000   1.0000   1.0000
     1.0000   1.0000   0.1091   0.1090   0.0000   0.0000   0.0000   0.0000
     0.0000   0.0000   0.0000   0.0000   0.0000   0.0000   0.0000   0.0000
     0.0000   0.0000   0.0000   0.0000   0.0000   0.0000   0.0000   0.0000
     0.0000

          k =-0.5000-0.5000 0.0000 (  7300 PWs)   bands (ev):

   -84.8161 -84.8161 -84.8161 -84.8161 -84.7951 -84.7951 -84.7951 -84.7951
   -84.5218 -84.5218 -84.5217 -84.5217 -48.3347 -48.3347 -48.3347 -48.3347
   -48.3129 -48.3129 -48.3129 -48.3129 -48.2602 -48.2602 -48.2602 -48.2602
   -48.2486 -48.2486 -48.2486 -48.2486 -48.2325 -48.2325 -48.2325 -48.2325
   -48.2192 -48.2191 -48.2191 -48.2191 -48.0293 -48.0293 -48.0292 -48.0292
   -47.9779 -47.9779 -47.9778 -47.9778 -47.9592 -47.9592 -47.9592 -47.9592
     1.1386   1.1386   1.1386   1.1386   1.4795   1.4795   1.4795   1.4795
     1.9831   1.9831   1.9831   1.9831   2.3777   2.3777   2.3777   2.3777
     2.4064   2.4064   2.4065   2.4065   2.5317   2.5317   2.5318   2.5319
     2.5437   2.5437   2.5437   2.5437   2.7843   2.7843   2.7843   2.7843
     2.9629   2.9630   2.9630   2.9630   3.1496   3.1497   3.1497   3.1497
     3.5857   3.5857   3.5857   3.5857   3.6579   3.6579   3.6579   3.6579
     3.9403   3.9403   3.9403   3.9403   4.0462   4.0462   4.0463   4.0463
     4.1022   4.1022   4.1023   4.1023   6.5621   6.5621   6.5621   6.5621
     6.7135   6.7135   6.7135   6.7135   7.3195   7.3195   7.3196   7.3196
     9.8180   9.8180   9.8182   9.8182  11.4592  11.4593  11.4593  11.4593
    13.2240  13.2242  13.2242  13.2242  14.5248  14.5254  14.5254  14.5258
    15.6593

     occupation numbers 
     1.0000   1.0000   1.0000   1.0000   1.0000   1.0000   1.0000   1.0000
     1.0000   1.0000   1.0000   1.0000   1.0000   1.0000   1.0000   1.0000
     1.0000   1.0000   1.0000   1.0000   1.0000   1.0000   1.0000   1.0000
     1.0000   1.0000   1.0000   1.0000   1.0000   1.0000   1.0000   1.0000
     1.0000   1.0000   1.0000   1.0000   1.0000   1.0000   1.0000   1.0000
     1.0000   1.0000   1.0000   1.0000   1.0000   1.0000   1.0000   1.0000
     1.0000   1.0000   1.0000   1.0000   1.0000   1.0000   1.0000   1.0000
     1.0000   1.0000   1.0000   1.0000   1.0000   1.0000   1.0000   1.0000
     1.0000   1.0000   1.0000   1.0000   1.0000   1.0000   1.0000   1.0000
     1.0000   1.0000   1.0000   1.0000   1.0000   1.0000   1.0000   1.0000
     1.0000   1.0000   1.0000   1.0000   1.0000   1.0000   1.0000   1.0000
     1.0000   1.0000   1.0000   1.0000   1.0000   1.0000   1.0000   1.0000
     1.0000   1.0000   1.0000   1.0000   1.0000   1.0000   1.0000   1.0000
     1.0000   1.0000   1.0000   1.0000   1.0000   1.0000   1.0000   1.0000
     1.0000   1.0000   1.0000   1.0000   0.5276   0.5276   0.5271   0.5271
     0.0000   0.0000   0.0000   0.0000   0.0000   0.0000   0.0000   0.0000
     0.0000   0.0000   0.0000   0.0000   0.0000   0.0000   0.0000   0.0000
     0.0000

     the Fermi energy is     7.3215 ev

!    total energy              =   -3547.23018371 Ry
     estimated scf accuracy    <       0.00000003 Ry
     smearing contrib. (-TS)   =      -0.00083339 Ry
     internal energy E=F+TS    =   -3547.22935032 Ry

     The total energy is F=E-TS. E is the sum of the following terms:
     one-electron contribution =  -16756.91105950 Ry
     hartree contribution      =    8410.99605546 Ry
     xc contribution           =    -347.40282055 Ry
     ewald contribution        =    5146.08847428 Ry

     convergence has been achieved in   9 iterations

     negative rho (up, down):  1.443E-03 0.000E+00

     Forces acting on atoms (cartesian axes, Ry/au):

     atom    1 type  1   force =     0.00000000    0.00000000    0.00383284
     atom    2 type  1   force =     0.00000000    0.00000000    0.00091830
     atom    3 type  1   force =     0.00000000    0.00000000    0.00302984
     atom    4 type  1   force =     0.00000000    0.00000000   -0.00305238
     atom    5 type  1   force =     0.00000000    0.00000000   -0.00096236
     atom    6 type  1   force =     0.00000000    0.00000000   -0.00377054
     atom    7 type  1   force =     0.00000000    0.00000000   -0.00305238
     atom    8 type  1   force =     0.00000000    0.00000000   -0.00096236
     atom    9 type  1   force =     0.00000000    0.00000000   -0.00377054
     atom   10 type  1   force =     0.00000000    0.00000000    0.00383120
     atom   11 type  1   force =     0.00000000    0.00000000    0.00091850
     atom   12 type  1   force =     0.00000000    0.00000000    0.00303990
     The non-local contrib.  to forces
     atom    1 type  1   force =     0.00000000    0.00000000   -0.20608625
     atom    2 type  1   force =     0.00000000    0.00000000   -0.01673210
     atom    3 type  1   force =     0.00000000    0.00000000    0.02134893
     atom    4 type  1   force =     0.00000000    0.00000000   -0.02144554
     atom    5 type  1   force =     0.00000000    0.00000000    0.01657845
     atom    6 type  1   force =     0.00000000    0.00000000    0.20606456
     atom    7 type  1   force =     0.00000000    0.00000000   -0.02144554
     atom    8 type  1   force =     0.00000000    0.00000000    0.01657845
     atom    9 type  1   force =     0.00000000    0.00000000    0.20606456
     atom   10 type  1   force =     0.00000000    0.00000000   -0.20609427
     atom   11 type  1   force =     0.00000000    0.00000000   -0.01673249
     atom   12 type  1   force =     0.00000000    0.00000000    0.02135389
     The ionic contribution  to forces
     atom    1 type  1   force =    -0.00000000    0.00000000 -320.85465302
     atom    2 type  1   force =    -0.00000000   -0.00000000  -65.28906929
     atom    3 type  1   force =    -0.00000000   -0.00000000  195.86893943
     atom    4 type  1   force =    -0.00000000    0.00000000 -195.86715157
     atom    5 type  1   force =    -0.00000000   -0.00000000   65.29385889
     atom    6 type  1   force =    -0.00000000   -0.00000000  320.84792794
     atom    7 type  1   force =     0.00000000   -0.00000000 -195.86715157
     atom    8 type  1   force =    -0.00000000   -0.00000000   65.29385889
     atom    9 type  1   force =    -0.00000000   -0.00000000  320.84792794
     atom   10 type  1   force =    -0.00000000   -0.00000000 -320.85464393
     atom   11 type  1   force =     0.00000000    0.00000000  -65.28900240
     atom   12 type  1   force =    -0.00000000   -0.00000000  195.86915869
     The local contribution  to forces
     atom    1 type  1   force =    -0.00000000    0.00000000  321.06326966
     atom    2 type  1   force =    -0.00000000    0.00000000   65.30709693
     atom    3 type  1   force =     0.00000000   -0.00000000 -195.88674744
     atom    4 type  1   force =     0.00000000    0.00000000  195.88591777
     atom    5 type  1   force =     0.00000000    0.00000000  -65.31064397
     atom    6 type  1   force =     0.00000000    0.00000000 -321.05657749
     atom    7 type  1   force =     0.00000000   -0.00000000  195.88591777
     atom    8 type  1   force =     0.00000000    0.00000000  -65.31064397
     atom    9 type  1   force =     0.00000000    0.00000000 -321.05657749
     atom   10 type  1   force =     0.00000000    0.00000000  321.06326662
     atom   11 type  1   force =     0.00000000    0.00000000   65.30703118
     atom   12 type  1   force =     0.00000000    0.00000000 -195.88696201
     The core correction contribution to forces
     atom    1 type  1   force =    -0.00000000   -0.00000000    0.00134702
     atom    2 type  1   force =     0.00000000    0.00000000    0.00013148
     atom    3 type  1   force =    -0.00000000    0.00000000   -0.00000152
     atom    4 type  1   force =     0.00000000   -0.00000000    0.00000137
     atom    5 type  1   force =     0.00000000   -0.00000000   -0.00013216
     atom    6 type  1   force =    -0.00000000   -0.00000000   -0.00134650
     atom    7 type  1   force =    -0.00000000   -0.00000000    0.00000137
     atom    8 type  1   force =    -0.00000000    0.00000000   -0.00013216
     atom    9 type  1   force =    -0.00000000    0.00000000   -0.00134650
     atom   10 type  1   force =     0.00000000    0.00000000    0.00134677
     atom   11 type  1   force =    -0.00000000   -0.00000000    0.00013119
     atom   12 type  1   force =     0.00000000    0.00000000   -0.00000059
     The Hubbard contrib.    to forces
     atom    1 type  1   force =     0.00000000    0.00000000    0.00000000
     atom    2 type  1   force =     0.00000000    0.00000000    0.00000000
     atom    3 type  1   force =     0.00000000    0.00000000    0.00000000
     atom    4 type  1   force =     0.00000000    0.00000000    0.00000000
     atom    5 type  1   force =     0.00000000    0.00000000    0.00000000
     atom    6 type  1   force =     0.00000000    0.00000000    0.00000000
     atom    7 type  1   force =     0.00000000    0.00000000    0.00000000
     atom    8 type  1   force =     0.00000000    0.00000000    0.00000000
     atom    9 type  1   force =     0.00000000    0.00000000    0.00000000
     atom   10 type  1   force =     0.00000000    0.00000000    0.00000000
     atom   11 type  1   force =     0.00000000    0.00000000    0.00000000
     atom   12 type  1   force =     0.00000000    0.00000000    0.00000000
     The SCF correction term to forces
     atom    1 type  1   force =     0.00000000    0.00000000   -0.00009485
     atom    2 type  1   force =     0.00000000    0.00000000   -0.00055900
     atom    3 type  1   force =     0.00000000    0.00000000   -0.00055984
     atom    4 type  1   force =    -0.00000000    0.00000000   -0.00042470
     atom    5 type  1   force =    -0.00000000    0.00000000   -0.00067386
     atom    6 type  1   force =     0.00000000   -0.00000000    0.00011067
     atom    7 type  1   force =    -0.00000000   -0.00000000   -0.00042470
     atom    8 type  1   force =    -0.00000000   -0.00000000   -0.00067386
     atom    9 type  1   force =    -0.00000000    0.00000000    0.00011067
     atom   10 type  1   force =    -0.00000000   -0.00000000   -0.00009428
     atom   11 type  1   force =    -0.00000000    0.00000000   -0.00055925
     atom   12 type  1   force =     0.00000000   -0.00000000   -0.00056037

     Total force =     0.009920     Total SCF correction =     0.001601
     SCF correction compared to forces is large: reduce conv_thr to get better values


     Computing stress (Cartesian axis) and pressure


     negative rho (up, down):  1.443E-03 0.000E+00
          total   stress  (Ry/bohr**3)                   (kbar)     P=      -66.37
  -0.00047516   0.00000000   0.00000000          -69.90        0.00        0.00
   0.00000000  -0.00047516   0.00000000            0.00      -69.90        0.00
   0.00000000   0.00000000  -0.00040329            0.00        0.00      -59.33

     kinetic stress (kbar)  30027.43      0.00      0.00
                                0.00  30027.43      0.00
                                0.00      0.00  30080.61

     local   stress (kbar)-845462.90      0.00      0.00
                                0.00-845462.90     -0.00
                                0.00     -0.00 849072.90

     nonloc. stress (kbar)   3527.43      0.00      0.00
                                0.00   3527.43      0.00
                                0.00      0.00   3516.34

     hartree stress (kbar) 436880.65      0.00     -0.00
                                0.00 436880.65      0.00
                               -0.00      0.00-402622.56

     exc-cor stress (kbar)  -5415.40     -0.00     -0.00
                               -0.00  -5415.40     -0.00
                               -0.00     -0.00  -5419.05

     corecor stress (kbar)   -732.66     -0.00      0.00
                               -0.00   -732.66      0.00
                                0.00      0.00   -732.65

     ewald   stress (kbar) 381105.55      0.00     -0.00
                                0.00 381105.55     -0.00
                               -0.00     -0.00-473954.92

     hubbard stress (kbar)      0.00      0.00      0.00
                                0.00      0.00      0.00
                                0.00      0.00      0.00

     DFT-D   stress (kbar)      0.00      0.00      0.00
                                0.00      0.00      0.00
                                0.00      0.00      0.00

     XDM     stress (kbar)      0.00      0.00      0.00
                                0.00      0.00      0.00
                                0.00      0.00      0.00

     dft-nl  stress (kbar)      0.00      0.00      0.00
                                0.00      0.00      0.00
                                0.00      0.00      0.00

     TS-vdW  stress (kbar)      0.00      0.00      0.00
                                0.00      0.00      0.00
                                0.00      0.00      0.00


     Energy error            =      1.2E-04
     Gradient error          =      3.8E-03

     number of scf cycles    =   2
     number of bfgs steps    =   1

     energy   old            =   -3547.2300682223 Ry
     energy   new            =   -3547.2301837106 Ry

     CASE: energy  _new < energy  _old


     WARNING: bfgs curvature condition failed, Theta= 0.885
     new trust radius        =       0.0045507954 bohr
     new conv_thr            =       0.0000000115 Ry


ATOMIC_POSITIONS (angstrom)
Ag            0.0000000000        0.0000000000        0.0045971757
Ag            0.0000000000        0.0000000000        4.1617427485
Ag            0.0000000000        0.0000000000        8.3248595883
Ag            0.0000000000        2.0802750000        2.0764476258
Ag            0.0000000000        2.0802750000        6.2395307561
Ag            0.0000000000        2.0802750000       10.3969402552
Ag            2.0802750000        0.0000000000        2.0764476258
Ag            2.0802750000        0.0000000000        6.2395307561
Ag            2.0802750000        0.0000000000       10.3969402552
Ag            2.0802750000        2.0802750000        0.0045966665
Ag            2.0802750000        2.0802750000        4.1617447454
Ag            2.0802750000        2.0802750000        8.3248718015



     Writing output data file ./surface.save/
     NEW-OLD atomic charge density approx. for the potential

     negative rho (up, down):  1.446E-03 0.000E+00

     total cpu time spent up to now is       48.8 secs

     Self-consistent Calculation

     iteration #  1     ecut=    30.00 Ry     beta= 0.30
     Davidson diagonalization with overlap
     ethr =  1.00E-06,  avg # of iterations =  3.0

     negative rho (up, down):  1.447E-03 0.000E+00

     total cpu time spent up to now is       51.1 secs

     total energy              =   -3547.23017753 Ry
     estimated scf accuracy    <       0.00024851 Ry

     iteration #  2     ecut=    30.00 Ry     beta= 0.30
     Davidson diagonalization with overlap
     ethr =  1.09E-07,  avg # of iterations =  2.7

     negative rho (up, down):  1.447E-03 0.000E+00

     total cpu time spent up to now is       52.8 secs

     total energy              =   -3547.22957035 Ry
     estimated scf accuracy    <       0.05206981 Ry

     iteration #  3     ecut=    30.00 Ry     beta= 0.30
     Davidson diagonalization with overlap
     ethr =  1.09E-07,  avg # of iterations =  2.5

     negative rho (up, down):  1.447E-03 0.000E+00

     total cpu time spent up to now is       54.4 secs

     total energy              =   -3547.23029035 Ry
     estimated scf accuracy    <       0.00003678 Ry

     iteration #  4     ecut=    30.00 Ry     beta= 0.30
     Davidson diagonalization with overlap
     ethr =  1.61E-08,  avg # of iterations =  1.3

     negative rho (up, down):  1.447E-03 0.000E+00

     total cpu time spent up to now is       55.8 secs

     total energy              =   -3547.23029310 Ry
     estimated scf accuracy    <       0.00003782 Ry

     iteration #  5     ecut=    30.00 Ry     beta= 0.30
     Davidson diagonalization with overlap
     ethr =  1.61E-08,  avg # of iterations =  1.0

     negative rho (up, down):  1.447E-03 0.000E+00

     total cpu time spent up to now is       57.2 secs

     total energy              =   -3547.23029483 Ry
     estimated scf accuracy    <       0.00000187 Ry

     iteration #  6     ecut=    30.00 Ry     beta= 0.30
     Davidson diagonalization with overlap
     ethr =  8.20E-10,  avg # of iterations =  1.0

     negative rho (up, down):  1.447E-03 0.000E+00

     total cpu time spent up to now is       58.6 secs

     total energy              =   -3547.23029488 Ry
     estimated scf accuracy    <       0.00000031 Ry

     iteration #  7     ecut=    30.00 Ry     beta= 0.30
     Davidson diagonalization with overlap
     ethr =  1.35E-10,  avg # of iterations =  1.3

     negative rho (up, down):  1.447E-03 0.000E+00

     total cpu time spent up to now is       60.0 secs

     total energy              =   -3547.23029491 Ry
     estimated scf accuracy    <       0.00000006 Ry

     iteration #  8     ecut=    30.00 Ry     beta= 0.30
     Davidson diagonalization with overlap
     ethr =  2.46E-11,  avg # of iterations =  1.7

     negative rho (up, down):  1.447E-03 0.000E+00

     total cpu time spent up to now is       61.5 secs

     total energy              =   -3547.23029492 Ry
     estimated scf accuracy    <       0.00000002 Ry

     iteration #  9     ecut=    30.00 Ry     beta= 0.30
     Davidson diagonalization with overlap
     ethr =  7.51E-12,  avg # of iterations =  1.0

     negative rho (up, down):  1.447E-03 0.000E+00

     total cpu time spent up to now is       62.8 secs

     total energy              =   -3547.23029492 Ry
[...]
   -47.9886 -47.9886 -47.9880 -47.9880 -47.9770 -47.9770 -47.9769 -47.9769
     1.3250   1.3250   1.3337   1.3337   1.5606   1.5607   1.6038   1.6038
     1.8870   1.8871   1.9827   1.9827   2.0343   2.0344   2.1391   2.1391
     2.3683   2.3683   2.3980   2.3981   2.4589   2.4589   2.4925   2.4926
     2.5328   2.5328   2.6871   2.6871   2.7531   2.7531   2.8415   2.8415
     2.8772   2.8773   2.8888   2.8888   3.0735   3.0736   3.0981   3.0981
     3.2589   3.2589   3.3526   3.3526   3.4684   3.4684   3.7176   3.7177
     3.7366   3.7367   3.7908   3.7909   3.9715   3.9715   3.9836   3.9836
     4.0425   4.0426   4.0628   4.0628   4.7099   4.7100   5.0739   5.0739
     5.9858   5.9858   7.3838   7.3838   8.9997   8.9998   9.5462   9.5463
    10.4665  10.4665  10.8429  10.8429  11.7915  11.7915  12.4472  12.4474
    13.0459  13.0461  13.9259  13.9266  14.1626  14.1627  14.4028  14.4028
    15.9567

     occupation numbers 
     1.0000   1.0000   1.0000   1.0000   1.0000   1.0000   1.0000   1.0000
     1.0000   1.0000   1.0000   1.0000   1.0000   1.0000   1.0000   1.0000
     1.0000   1.0000   1.0000   1.0000   1.0000   1.0000   1.0000   1.0000
     1.0000   1.0000   1.0000   1.0000   1.0000   1.0000   1.0000   1.0000
     1.0000   1.0000   1.0000   1.0000   1.0000   1.0000   1.0000   1.0000
     1.0000   1.0000   1.0000   1.0000   1.0000   1.0000   1.0000   1.0000
     1.0000   1.0000   1.0000   1.0000   1.0000   1.0000   1.0000   1.0000
     1.0000   1.0000   1.0000   1.0000   1.0000   1.0000   1.0000   1.0000
     1.0000   1.0000   1.0000   1.0000   1.0000   1.0000   1.0000   1.0000
     1.0000   1.0000   1.0000   1.0000   1.0000   1.0000   1.0000   1.0000
     1.0000   1.0000   1.0000   1.0000   1.0000   1.0000   1.0000   1.0000
     1.0000   1.0000   1.0000   1.0000   1.0000   1.0000   1.0000   1.0000
     1.0000   1.0000   1.0000   1.0000   1.0000   1.0000   1.0000   1.0000
     1.0000   1.0000   1.0000   1.0000   1.0000   1.0000   1.0000   1.0000
     1.0000   1.0000   0.0165   0.0165   0.0000   0.0000   0.0000   0.0000
     0.0000   0.0000   0.0000   0.0000   0.0000   0.0000   0.0000   0.0000
     0.0000   0.0000   0.0000   0.0000   0.0000   0.0000   0.0000   0.0000
     0.0000

          k =-0.5000-0.5000 0.0000 (  7300 PWs)   bands (ev):

   -84.8396 -84.8396 -84.8396 -84.8396 -84.8253 -84.8252 -84.8252 -84.8252
   -84.5307 -84.5307 -84.5307 -84.5306 -48.3609 -48.3609 -48.3609 -48.3609
   -48.3414 -48.3414 -48.3414 -48.3414 -48.2867 -48.2867 -48.2867 -48.2866
   -48.2721 -48.2721 -48.2721 -48.2721 -48.2606 -48.2606 -48.2606 -48.2606
   -48.2497 -48.2497 -48.2497 -48.2497 -48.0368 -48.0368 -48.0368 -48.0368
   -47.9882 -47.9882 -47.9882 -47.9881 -47.9672 -47.9672 -47.9672 -47.9672
     1.0897   1.0897   1.0897   1.0897   1.4280   1.4280   1.4280   1.4280
     1.9341   1.9341   1.9341   1.9342   2.3530   2.3530   2.3530   2.3530
     2.3989   2.3989   2.3989   2.3990   2.4927   2.4928   2.4928   2.4928
     2.5361   2.5361   2.5361   2.5361   2.7328   2.7328   2.7328   2.7328
     2.9335   2.9335   2.9335   2.9335   3.1035   3.1036   3.1036   3.1037
     3.5646   3.5646   3.5646   3.5646   3.6453   3.6454   3.6454   3.6454
     3.9535   3.9536   3.9536   3.9536   4.0285   4.0285   4.0285   4.0286
     4.1066   4.1066   4.1067   4.1067   6.5304   6.5306   6.5306   6.5307
     6.6871   6.6872   6.6872   6.6873   7.3061   7.3062   7.3062   7.3063
     9.8517   9.8519   9.8519   9.8519  11.5013  11.5013  11.5013  11.5013
    13.3028  13.3028  13.3028  13.3028  14.5608  14.5611  14.5611  14.5612
    15.6610

     occupation numbers 
     1.0000   1.0000   1.0000   1.0000   1.0000   1.0000   1.0000   1.0000
     1.0000   1.0000   1.0000   1.0000   1.0000   1.0000   1.0000   1.0000
     1.0000   1.0000   1.0000   1.0000   1.0000   1.0000   1.0000   1.0000
     1.0000   1.0000   1.0000   1.0000   1.0000   1.0000   1.0000   1.0000
     1.0000   1.0000   1.0000   1.0000   1.0000   1.0000   1.0000   1.0000
     1.0000   1.0000   1.0000   1.0000   1.0000   1.0000   1.0000   1.0000
     1.0000   1.0000   1.0000   1.0000   1.0000   1.0000   1.0000   1.0000
     1.0000   1.0000   1.0000   1.0000   1.0000   1.0000   1.0000   1.0000
     1.0000   1.0000   1.0000   1.0000   1.0000   1.0000   1.0000   1.0000
     1.0000   1.0000   1.0000   1.0000   1.0000   1.0000   1.0000   1.0000
     1.0000   1.0000   1.0000   1.0000   1.0000   1.0000   1.0000   1.0000
     1.0000   1.0000   1.0000   1.0000   1.0000   1.0000   1.0000   1.0000
     1.0000   1.0000   1.0000   1.0000   1.0000   1.0000   1.0000   1.0000
     1.0000   1.0000   1.0000   1.0000   1.0000   1.0000   1.0000   1.0000
     1.0000   1.0000   1.0000   1.0000   0.7124   0.7112   0.7112   0.7100
     0.0000   0.0000   0.0000   0.0000   0.0000   0.0000   0.0000   0.0000
     0.0000   0.0000   0.0000   0.0000   0.0000   0.0000   0.0000   0.0000
     0.0000

     the Fermi energy is     7.3223 ev

!    total energy              =   -3547.23091452 Ry
     estimated scf accuracy    <          1.8E-09 Ry
     smearing contrib. (-TS)   =      -0.00046707 Ry
     internal energy E=F+TS    =   -3547.23044745 Ry

     The total energy is F=E-TS. E is the sum of the following terms:
     one-electron contribution =  -17057.60372558 Ry
     hartree contribution      =    8561.17631609 Ry
     xc contribution           =    -347.44205342 Ry
     ewald contribution        =    5296.63901546 Ry

     convergence has been achieved in  10 iterations

     negative rho (up, down):  1.500E-03 0.000E+00

     Forces acting on atoms (cartesian axes, Ry/au):

     atom    1 type  1   force =     0.00000000    0.00000000    0.00022165
     atom    2 type  1   force =     0.00000000    0.00000000    0.00039314
     atom    3 type  1   force =     0.00000000    0.00000000    0.00049236
     atom    4 type  1   force =     0.00000000    0.00000000   -0.00049825
     atom    5 type  1   force =     0.00000000    0.00000000   -0.00039724
     atom    6 type  1   force =     0.00000000    0.00000000   -0.00021121
     atom    7 type  1   force =     0.00000000    0.00000000   -0.00049825
     atom    8 type  1   force =     0.00000000    0.00000000   -0.00039724
     atom    9 type  1   force =     0.00000000    0.00000000   -0.00021121
     atom   10 type  1   force =     0.00000000    0.00000000    0.00021053
     atom   11 type  1   force =     0.00000000    0.00000000    0.00040669
     atom   12 type  1   force =     0.00000000    0.00000000    0.00048903
     The non-local contrib.  to forces
     atom    1 type  1   force =     0.00000000    0.00000000   -0.21315609
     atom    2 type  1   force =     0.00000000    0.00000000   -0.02515304
     atom    3 type  1   force =     0.00000000    0.00000000   -0.00190639
     atom    4 type  1   force =     0.00000000    0.00000000    0.00201542
     atom    5 type  1   force =     0.00000000    0.00000000    0.02517644
     atom    6 type  1   force =     0.00000000    0.00000000    0.21321419
     atom    7 type  1   force =     0.00000000    0.00000000    0.00201542
     atom    8 type  1   force =     0.00000000    0.00000000    0.02517644
     atom    9 type  1   force =     0.00000000    0.00000000    0.21321419
     atom   10 type  1   force =     0.00000000    0.00000000   -0.21321720
     atom   11 type  1   force =     0.00000000    0.00000000   -0.02514857
     atom   12 type  1   force =     0.00000000    0.00000000   -0.00211994
     The ionic contribution  to forces
     atom    1 type  1   force =    -0.00000000   -0.00000000 -324.51920812
     atom    2 type  1   force =    -0.00000000   -0.00000000  -65.76579233
     atom    3 type  1   force =    -0.00000000   -0.00000000  197.22561921
     atom    4 type  1   force =    -0.00000000    0.00000000 -197.23164084
     atom    5 type  1   force =    -0.00000000    0.00000000   65.76482064
     atom    6 type  1   force =    -0.00000000   -0.00000000  324.52422308
     atom    7 type  1   force =     0.00000000   -0.00000000 -197.23164084
     atom    8 type  1   force =     0.00000000   -0.00000000   65.76482064
     atom    9 type  1   force =    -0.00000000   -0.00000000  324.52422308
     atom   10 type  1   force =     0.00000000    0.00000000 -324.52358857
     atom   11 type  1   force =    -0.00000000   -0.00000000  -65.76868357
     atom   12 type  1   force =    -0.00000000   -0.00000000  197.23684763
     The local contribution  to forces
     atom    1 type  1   force =     0.00000000    0.00000000  324.73116725
     atom    2 type  1   force =     0.00000000    0.00000000   65.79114328
     atom    3 type  1   force =    -0.00000000    0.00000000 -197.22321561
     atom    4 type  1   force =     0.00000000    0.00000000  197.22906445
     atom    5 type  1   force =     0.00000000   -0.00000000  -65.79028506
     atom    6 type  1   force =    -0.00000000    0.00000000 -324.73620213
     atom    7 type  1   force =     0.00000000    0.00000000  197.22906445
     atom    8 type  1   force =    -0.00000000    0.00000000  -65.79028506
     atom    9 type  1   force =     0.00000000    0.00000000 -324.73620213
     atom   10 type  1   force =     0.00000000    0.00000000  324.73559858
     atom   11 type  1   force =     0.00000000    0.00000000   65.79404364
     atom   12 type  1   force =     0.00000000    0.00000000 -197.23423668
     The core correction contribution to forces
     atom    1 type  1   force =    -0.00000000   -0.00000000    0.00140625
     atom    2 type  1   force =     0.00000000   -0.00000000    0.00018202
     atom    3 type  1   force =     0.00000000   -0.00000000    0.00013444
     atom    4 type  1   force =    -0.00000000   -0.00000000   -0.00013586
     atom    5 type  1   force =     0.00000000   -0.00000000   -0.00018246
     atom    6 type  1   force =     0.00000000   -0.00000000   -0.00140621
     atom    7 type  1   force =    -0.00000000   -0.00000000   -0.00013586
     atom    8 type  1   force =    -0.00000000   -0.00000000   -0.00018246
     atom    9 type  1   force =     0.00000000   -0.00000000   -0.00140621
     atom   10 type  1   force =    -0.00000000   -0.00000000    0.00140555
     atom   11 type  1   force =     0.00000000    0.00000000    0.00018206
     atom   12 type  1   force =     0.00000000    0.00000000    0.00013728
     The Hubbard contrib.    to forces
     atom    1 type  1   force =     0.00000000    0.00000000    0.00000000
     atom    2 type  1   force =     0.00000000    0.00000000    0.00000000
     atom    3 type  1   force =     0.00000000    0.00000000    0.00000000
     atom    4 type  1   force =     0.00000000    0.00000000    0.00000000
     atom    5 type  1   force =     0.00000000    0.00000000    0.00000000
     atom    6 type  1   force =     0.00000000    0.00000000    0.00000000
     atom    7 type  1   force =     0.00000000    0.00000000    0.00000000
     atom    8 type  1   force =     0.00000000    0.00000000    0.00000000
     atom    9 type  1   force =     0.00000000    0.00000000    0.00000000
     atom   10 type  1   force =     0.00000000    0.00000000    0.00000000
     atom   11 type  1   force =     0.00000000    0.00000000    0.00000000
     atom   12 type  1   force =     0.00000000    0.00000000    0.00000000
     The SCF correction term to forces
     atom    1 type  1   force =     0.00000000    0.00000000    0.00001991
     atom    2 type  1   force =     0.00000000    0.00000000    0.00002077
     atom    3 type  1   force =    -0.00000000    0.00000000   -0.00013174
     atom    4 type  1   force =    -0.00000000   -0.00000000    0.00020613
     atom    5 type  1   force =    -0.00000000   -0.00000000    0.00008075
     atom    6 type  1   force =     0.00000000   -0.00000000   -0.00003260
     atom    7 type  1   force =    -0.00000000   -0.00000000    0.00020613
     atom    8 type  1   force =    -0.00000000   -0.00000000    0.00008075
     atom    9 type  1   force =     0.00000000    0.00000000   -0.00003260
     atom   10 type  1   force =    -0.00000000   -0.00000000    0.00001971
     atom   11 type  1   force =     0.00000000   -0.00000000    0.00002068
     atom   12 type  1   force =     0.00000000   -0.00000000   -0.00013171

     Total force =     0.001340     Total SCF correction =     0.000369
     SCF correction compared to forces is large: reduce conv_thr to get better values


     Computing stress (Cartesian axis) and pressure


     negative rho (up, down):  1.500E-03 0.000E+00
          total   stress  (Ry/bohr**3)                   (kbar)     P=      -62.59
  -0.00045253   0.00000000   0.00000000          -66.57        0.00        0.00
   0.00000000  -0.00045253   0.00000000            0.00      -66.57        0.00
   0.00000000   0.00000000  -0.00037142            0.00        0.00      -54.64

     kinetic stress (kbar)  30030.67      0.00      0.00
                                0.00  30030.67      0.00
                                0.00      0.00  30082.69

     local   stress (kbar)-862740.93      0.00     -0.00
                                0.00-862740.93     -0.00
                               -0.00     -0.00 866783.43

     nonloc. stress (kbar)   3529.09      0.00      0.00
                                0.00   3529.09      0.00
                                0.00      0.00   3517.69

     hartree stress (kbar) 445462.19     -0.00      0.00
                               -0.00 445462.19      0.00
                                0.00      0.00-411373.34

     exc-cor stress (kbar)  -5415.96      0.00      0.00
                                0.00  -5415.96     -0.00
                                0.00     -0.00  -5419.58

     corecor stress (kbar)   -732.66      0.00     -0.00
                                0.00   -732.66      0.00
                               -0.00      0.00   -732.65

     ewald   stress (kbar) 389801.05     -0.00     -0.00
                               -0.00 389801.05     -0.00
                               -0.00     -0.00-482912.87

     hubbard stress (kbar)      0.00      0.00      0.00
                                0.00      0.00      0.00
                                0.00      0.00      0.00

     DFT-D   stress (kbar)      0.00      0.00      0.00
                                0.00      0.00      0.00
                                0.00      0.00      0.00

     XDM     stress (kbar)      0.00      0.00      0.00
                                0.00      0.00      0.00
                                0.00      0.00      0.00

     dft-nl  stress (kbar)      0.00      0.00      0.00
                                0.00      0.00      0.00
                                0.00      0.00      0.00

     TS-vdW  stress (kbar)      0.00      0.00      0.00
                                0.00      0.00      0.00
                                0.00      0.00      0.00


     Energy error            =      2.0E-05
     Gradient error          =      5.0E-04

     bfgs converged in  15 scf cycles and  14 bfgs steps
     (criteria: energy <  1.0E-04 Ry, force <  1.0E-03 Ry/Bohr)

     End of BFGS Geometry Optimization

     Final energy   =   -3547.2309145218 Ry

     File ./surface.bfgs deleted, as requested
Begin final coordinates

ATOMIC_POSITIONS (angstrom)
Ag            0.0000000000        0.0000000000        0.0552402550
Ag            0.0000000000        0.0000000000        4.1691705967
Ag            0.0000000000        0.0000000000        8.3112152486
Ag            0.0000000000        2.0802750000        2.0900204078
Ag            0.0000000000        2.0802750000        6.2322804436
Ag            0.0000000000        2.0802750000       10.3461698913
Ag            2.0802750000        0.0000000000        2.0900204078
Ag            2.0802750000        0.0000000000        6.2322804436
Ag            2.0802750000        0.0000000000       10.3461698913
Ag            2.0802750000        2.0802750000        0.0550808701
Ag            2.0802750000        2.0802750000        4.1690865446
Ag            2.0802750000        2.0802750000        8.3115149996
End final coordinates



     Writing output data file ./surface.save/

     init_run     :      0.98s CPU      1.04s WALL (       1 calls)
     electrons    :    219.02s CPU    229.25s WALL (      15 calls)
     update_pot   :      3.05s CPU      3.09s WALL (      14 calls)
     forces       :      7.00s CPU      7.39s WALL (      15 calls)
     stress       :     25.13s CPU     26.09s WALL (      15 calls)

     Called by init_run:
     wfcinit      :      0.48s CPU      0.49s WALL (       1 calls)
     wfcinit:atom :      0.00s CPU      0.00s WALL (       6 calls)
     wfcinit:wfcr :      0.45s CPU      0.46s WALL (       6 calls)
     potinit      :      0.10s CPU      0.10s WALL (       1 calls)
     hinit0       :      0.20s CPU      0.21s WALL (       1 calls)

     Called by electrons:
     c_bands      :    173.18s CPU    175.62s WALL (     141 calls)
     sum_band     :     32.81s CPU     37.01s WALL (     141 calls)
     v_of_rho     :      3.22s CPU      3.34s WALL (     151 calls)
     v_h          :      0.20s CPU      0.21s WALL (     151 calls)
     v_xc         :      3.62s CPU      3.75s WALL (     181 calls)
     newd         :     10.30s CPU     13.61s WALL (     151 calls)
     mix_rho      :      0.32s CPU      0.33s WALL (     141 calls)

     Called by c_bands:
     init_us_2    :      1.03s CPU      1.05s WALL (    1878 calls)
     cegterg      :    169.62s CPU    171.93s WALL (     846 calls)

     Called by sum_band:
     sum_band:wei :      0.04s CPU      0.04s WALL (     141 calls)
     sum_band:loo :     18.77s CPU     19.10s WALL (     141 calls)
     sum_band:buf :      0.31s CPU      0.32s WALL (     846 calls)
     sum_band:ini :      0.42s CPU      0.43s WALL (     846 calls)
     sum_band:cal :      4.57s CPU      4.61s WALL (     846 calls)
     sum_band:bec :      0.19s CPU      0.19s WALL (     846 calls)
     addusdens    :      8.27s CPU     12.08s WALL (     141 calls)
     addusd:skk   :      0.12s CPU      0.13s WALL (     141 calls)
     addusd:dgemm :      3.22s CPU      6.44s WALL (     141 calls)
     addusd:qvan2 :      3.88s CPU      3.91s WALL (     141 calls)

     Called by *egterg:
     cdiaghg      :     37.76s CPU     38.01s WALL (    2533 calls)
     cegterg:over :     14.53s CPU     14.64s WALL (    1801 calls)
     cegterg:upda :      7.82s CPU      7.92s WALL (    1801 calls)
     cegterg:last :     17.96s CPU     18.08s WALL (    1458 calls)
     cdiaghg:chol :      1.74s CPU      1.76s WALL (    2533 calls)
     cdiaghg:inve :      1.71s CPU      1.73s WALL (    2533 calls)
     cdiaghg:para :      4.04s CPU      4.07s WALL (    5066 calls)
     h_psi        :     78.70s CPU     80.20s WALL (    2653 calls)
     s_psi        :      7.07s CPU      7.15s WALL (    2653 calls)
     g_psi        :      0.19s CPU      0.19s WALL (    1801 calls)

     Called by h_psi:
     h_psi:calbec :     12.24s CPU     12.35s WALL (    2653 calls)
     vloc_psi     :     57.90s CPU     59.15s WALL (    2653 calls)
     add_vuspsi   :      8.08s CPU      8.16s WALL (    2653 calls)

     General routines
     calbec       :     19.43s CPU     19.60s WALL (    3949 calls)
     fft          :      2.35s CPU      2.39s WALL (    2327 calls)
     ffts         :      0.10s CPU      0.10s WALL (     292 calls)
     fftw         :     66.96s CPU     68.40s WALL (  639978 calls)
     interpolate  :      0.20s CPU      0.21s WALL (     151 calls)

     Parallel routines
     fft_scatt_xy :      5.16s CPU      5.27s WALL (  642597 calls)
     fft_scatt_yz :     29.11s CPU     29.75s WALL (  642597 calls)

     PWSCF        :   4m16.62s CPU   4m28.90s WALL


   This run was terminated on:   3:58:44  10Dec2021            

=------------------------------------------------------------------------------=
   JOB DONE.
=------------------------------------------------------------------------------=
