
     Program PWSCF v.6.7MaX starts on 24Nov2021 at 22:28:27 

     This program is part of the open-source Quantum ESPRESSO suite
     for quantum simulation of materials; please cite
         "P. Giannozzi et al., J. Phys.:Condens. Matter 21 395502 (2009);
         "P. Giannozzi et al., J. Phys.:Condens. Matter 29 465901 (2017);
          URL http://www.quantum-espresso.org", 
     in publications or presentations arising from this work. More details at
     http://www.quantum-espresso.org/quote

     Parallel version (MPI), running on    16 processors

     MPI processes distributed on     1 nodes
     R & G space division:  proc/nbgrp/npool/nimage =      16
     Reading input from au_bulk.qe.11_11_11.in

     Current dimensions of program PWSCF are:
     Max number of different atomic species (ntypx) = 10
     Max number of k-points (npk) =  40000
     Max angular momentum in pseudopotentials (lmaxx) =  3

     Subspace diagonalization in iterative solution of the eigenvalue problem:
     one sub-group per band group will be used
     scalapack distributed-memory algorithm (size of sub-group:  4*  4 procs)

     Found symmetry operation: I + (  0.0000 -0.5000 -0.5000)
     This is a supercell, fractional translations are disabled

     Parallelization info
     --------------------
     sticks:   dense  smooth     PW     G-vecs:    dense   smooth      PW
     Min          89      35     11                 2515      633     111
     Max          90      37     12                 2518      635     114
     Sum        1425     569    177                40243    10131    1791



     bravais-lattice index     =            1
     lattice parameter (alat)  =       7.7068  a.u.
     unit-cell volume          =     457.7392 (a.u.)^3
     number of atoms/cell      =            4
     number of atomic types    =            1
     number of electrons       =        44.00
     number of Kohn-Sham states=           26
     kinetic-energy cutoff     =      30.0000  Ry
     charge density cutoff     =     300.0000  Ry
     scf convergence threshold =      1.0E-08
     mixing beta               =       0.3000
     number of iterations used =            8  plain     mixing
     Exchange-correlation= SLA  PW   PBE  PBE
                           (   1   4   3   4   0   0   0)

     celldm(1)=   7.706776  celldm(2)=   0.000000  celldm(3)=   0.000000
     celldm(4)=   0.000000  celldm(5)=   0.000000  celldm(6)=   0.000000

     crystal axes: (cart. coord. in units of alat)
               a(1) = (   1.000000   0.000000   0.000000 )  
               a(2) = (   0.000000   1.000000   0.000000 )  
               a(3) = (   0.000000   0.000000   1.000000 )  

     reciprocal axes: (cart. coord. in units 2 pi/alat)
               b(1) = (  1.000000  0.000000  0.000000 )  
               b(2) = (  0.000000  1.000000  0.000000 )  
               b(3) = (  0.000000  0.000000  1.000000 )  


     PseudoPot. # 1 for Au read from file:
     /expanse/lustre/projects/csd622/tpascal/nano110/qe/pseudo/au_pbe_v1.uspp.F.UPF
     MD5 check sum: 9d7f43293ad2c663164586bc4b293ffc
     Pseudo is Ultrasoft + core correction, Zval = 11.0
     Generated by new atomic code, or converted to UPF format
     Using radial grid of  985 points,  7 beta functions with: 
                l(1) =   0
                l(2) =   0
                l(3) =   1
                l(4) =   1
                l(5) =   2
                l(6) =   2
                l(7) =   3
     Q(r) pseudized with  6 coefficients,  rinner =    1.900   1.900   1.900
                                                       1.900   1.900   1.900
                                                       1.900

     atomic species   valence    mass     pseudopotential
        Au            11.00   196.96655     Au( 1.00)

     48 Sym. Ops., with inversion, found


                                    s                        frac. trans.

      isym =  1     identity                                     

 cryst.   s( 1) = (     1          0          0      )
                  (     0          1          0      )
                  (     0          0          1      )

 cart.    s( 1) = (  1.0000000  0.0000000  0.0000000 )
                  (  0.0000000  1.0000000  0.0000000 )
                  (  0.0000000  0.0000000  1.0000000 )


      isym =  2     180 deg rotation - cart. axis [0,0,1]        

 cryst.   s( 2) = (    -1          0          0      )
                  (     0         -1          0      )
                  (     0          0          1      )

 cart.    s( 2) = ( -1.0000000  0.0000000  0.0000000 )
                  (  0.0000000 -1.0000000  0.0000000 )
                  (  0.0000000  0.0000000  1.0000000 )


      isym =  3     180 deg rotation - cart. axis [0,1,0]        

 cryst.   s( 3) = (    -1          0          0      )
                  (     0          1          0      )
                  (     0          0         -1      )

 cart.    s( 3) = ( -1.0000000  0.0000000  0.0000000 )
                  (  0.0000000  1.0000000  0.0000000 )
                  (  0.0000000  0.0000000 -1.0000000 )


      isym =  4     180 deg rotation - cart. axis [1,0,0]        

 cryst.   s( 4) = (     1          0          0      )
                  (     0         -1          0      )
                  (     0          0         -1      )

 cart.    s( 4) = (  1.0000000  0.0000000  0.0000000 )
                  (  0.0000000 -1.0000000  0.0000000 )
                  (  0.0000000  0.0000000 -1.0000000 )


      isym =  5     180 deg rotation - cart. axis [1,1,0]        

 cryst.   s( 5) = (     0          1          0      )
                  (     1          0          0      )
                  (     0          0         -1      )

 cart.    s( 5) = (  0.0000000  1.0000000  0.0000000 )
                  (  1.0000000  0.0000000  0.0000000 )
                  (  0.0000000  0.0000000 -1.0000000 )


      isym =  6     180 deg rotation - cart. axis [1,-1,0]       

 cryst.   s( 6) = (     0         -1          0      )
                  (    -1          0          0      )
                  (     0          0         -1      )

 cart.    s( 6) = (  0.0000000 -1.0000000  0.0000000 )
                  ( -1.0000000  0.0000000  0.0000000 )
                  (  0.0000000  0.0000000 -1.0000000 )


      isym =  7      90 deg rotation - cart. axis [0,0,-1]       

 cryst.   s( 7) = (     0         -1          0      )
                  (     1          0          0      )
                  (     0          0          1      )

 cart.    s( 7) = (  0.0000000  1.0000000  0.0000000 )
                  ( -1.0000000  0.0000000  0.0000000 )
                  (  0.0000000  0.0000000  1.0000000 )


      isym =  8      90 deg rotation - cart. axis [0,0,1]        

 cryst.   s( 8) = (     0          1          0      )
                  (    -1          0          0      )
                  (     0          0          1      )

 cart.    s( 8) = (  0.0000000 -1.0000000  0.0000000 )
                  (  1.0000000  0.0000000  0.0000000 )
                  (  0.0000000  0.0000000  1.0000000 )


      isym =  9     180 deg rotation - cart. axis [1,0,1]        

 cryst.   s( 9) = (     0          0          1      )
                  (     0         -1          0      )
                  (     1          0          0      )

 cart.    s( 9) = (  0.0000000  0.0000000  1.0000000 )
                  (  0.0000000 -1.0000000  0.0000000 )
                  (  1.0000000  0.0000000  0.0000000 )


      isym = 10     180 deg rotation - cart. axis [-1,0,1]       

 cryst.   s(10) = (     0          0         -1      )
                  (     0         -1          0      )
                  (    -1          0          0      )

 cart.    s(10) = (  0.0000000  0.0000000 -1.0000000 )
                  (  0.0000000 -1.0000000  0.0000000 )
                  ( -1.0000000  0.0000000  0.0000000 )


      isym = 11      90 deg rotation - cart. axis [0,1,0]        

 cryst.   s(11) = (     0          0         -1      )
                  (     0          1          0      )
                  (     1          0          0      )

 cart.    s(11) = (  0.0000000  0.0000000  1.0000000 )
                  (  0.0000000  1.0000000  0.0000000 )
                  ( -1.0000000  0.0000000  0.0000000 )


      isym = 12      90 deg rotation - cart. axis [0,-1,0]       

 cryst.   s(12) = (     0          0          1      )
                  (     0          1          0      )
                  (    -1          0          0      )

 cart.    s(12) = (  0.0000000  0.0000000 -1.0000000 )
                  (  0.0000000  1.0000000  0.0000000 )
                  (  1.0000000  0.0000000  0.0000000 )


      isym = 13     180 deg rotation - cart. axis [0,1,1]        

 cryst.   s(13) = (    -1          0          0      )
                  (     0          0          1      )
                  (     0          1          0      )

 cart.    s(13) = ( -1.0000000  0.0000000  0.0000000 )
                  (  0.0000000  0.0000000  1.0000000 )
                  (  0.0000000  1.0000000  0.0000000 )


      isym = 14     180 deg rotation - cart. axis [0,1,-1]       

 cryst.   s(14) = (    -1          0          0      )
                  (     0          0         -1      )
                  (     0         -1          0      )

 cart.    s(14) = ( -1.0000000  0.0000000  0.0000000 )
                  (  0.0000000  0.0000000 -1.0000000 )
                  (  0.0000000 -1.0000000  0.0000000 )


      isym = 15      90 deg rotation - cart. axis [-1,0,0]       

 cryst.   s(15) = (     1          0          0      )
                  (     0          0         -1      )
                  (     0          1          0      )

 cart.    s(15) = (  1.0000000  0.0000000  0.0000000 )
                  (  0.0000000  0.0000000  1.0000000 )
                  (  0.0000000 -1.0000000  0.0000000 )


      isym = 16      90 deg rotation - cart. axis [1,0,0]        

 cryst.   s(16) = (     1          0          0      )
                  (     0          0          1      )
                  (     0         -1          0      )

 cart.    s(16) = (  1.0000000  0.0000000  0.0000000 )
                  (  0.0000000  0.0000000 -1.0000000 )
                  (  0.0000000  1.0000000  0.0000000 )


      isym = 17     120 deg rotation - cart. axis [-1,-1,-1]     

 cryst.   s(17) = (     0          0          1      )
                  (     1          0          0      )
                  (     0          1          0      )

 cart.    s(17) = (  0.0000000  1.0000000  0.0000000 )
                  (  0.0000000  0.0000000  1.0000000 )
                  (  1.0000000  0.0000000  0.0000000 )


      isym = 18     120 deg rotation - cart. axis [-1,1,1]       

 cryst.   s(18) = (     0          0         -1      )
                  (    -1          0          0      )
                  (     0          1          0      )

 cart.    s(18) = (  0.0000000 -1.0000000  0.0000000 )
                  (  0.0000000  0.0000000  1.0000000 )
                  ( -1.0000000  0.0000000  0.0000000 )


      isym = 19     120 deg rotation - cart. axis [1,1,-1]       

 cryst.   s(19) = (     0          0         -1      )
                  (     1          0          0      )
                  (     0         -1          0      )

 cart.    s(19) = (  0.0000000  1.0000000  0.0000000 )
                  (  0.0000000  0.0000000 -1.0000000 )
                  ( -1.0000000  0.0000000  0.0000000 )


      isym = 20     120 deg rotation - cart. axis [1,-1,1]       

 cryst.   s(20) = (     0          0          1      )
                  (    -1          0          0      )
                  (     0         -1          0      )

 cart.    s(20) = (  0.0000000 -1.0000000  0.0000000 )
                  (  0.0000000  0.0000000 -1.0000000 )
                  (  1.0000000  0.0000000  0.0000000 )


      isym = 21     120 deg rotation - cart. axis [1,1,1]        

 cryst.   s(21) = (     0          1          0      )
                  (     0          0          1      )
                  (     1          0          0      )

 cart.    s(21) = (  0.0000000  0.0000000  1.0000000 )
                  (  1.0000000  0.0000000  0.0000000 )
                  (  0.0000000  1.0000000  0.0000000 )


      isym = 22     120 deg rotation - cart. axis [-1,1,-1]      

 cryst.   s(22) = (     0         -1          0      )
                  (     0          0         -1      )
                  (     1          0          0      )

 cart.    s(22) = (  0.0000000  0.0000000  1.0000000 )
                  ( -1.0000000  0.0000000  0.0000000 )
                  (  0.0000000 -1.0000000  0.0000000 )


      isym = 23     120 deg rotation - cart. axis [1,-1,-1]      

 cryst.   s(23) = (     0         -1          0      )
                  (     0          0          1      )
                  (    -1          0          0      )

 cart.    s(23) = (  0.0000000  0.0000000 -1.0000000 )
                  ( -1.0000000  0.0000000  0.0000000 )
                  (  0.0000000  1.0000000  0.0000000 )


      isym = 24     120 deg rotation - cart. axis [-1,-1,1]      

 cryst.   s(24) = (     0          1          0      )
                  (     0          0         -1      )
                  (    -1          0          0      )

 cart.    s(24) = (  0.0000000  0.0000000 -1.0000000 )
                  (  1.0000000  0.0000000  0.0000000 )
                  (  0.0000000 -1.0000000  0.0000000 )


      isym = 25     inversion                                    

 cryst.   s(25) = (    -1          0          0      )
                  (     0         -1          0      )
                  (     0          0         -1      )

 cart.    s(25) = ( -1.0000000  0.0000000  0.0000000 )
                  (  0.0000000 -1.0000000  0.0000000 )
                  (  0.0000000  0.0000000 -1.0000000 )


      isym = 26     inv. 180 deg rotation - cart. axis [0,0,1]   

 cryst.   s(26) = (     1          0          0      )
                  (     0          1          0      )
                  (     0          0         -1      )

 cart.    s(26) = (  1.0000000  0.0000000  0.0000000 )
                  (  0.0000000  1.0000000  0.0000000 )
                  (  0.0000000  0.0000000 -1.0000000 )


      isym = 27     inv. 180 deg rotation - cart. axis [0,1,0]   

 cryst.   s(27) = (     1          0          0      )
                  (     0         -1          0      )
                  (     0          0          1      )

 cart.    s(27) = (  1.0000000  0.0000000  0.0000000 )
                  (  0.0000000 -1.0000000  0.0000000 )
                  (  0.0000000  0.0000000  1.0000000 )


      isym = 28     inv. 180 deg rotation - cart. axis [1,0,0]   

 cryst.   s(28) = (    -1          0          0      )
                  (     0          1          0      )
                  (     0          0          1      )

 cart.    s(28) = ( -1.0000000  0.0000000  0.0000000 )
                  (  0.0000000  1.0000000  0.0000000 )
                  (  0.0000000  0.0000000  1.0000000 )


      isym = 29     inv. 180 deg rotation - cart. axis [1,1,0]   

 cryst.   s(29) = (     0         -1          0      )
                  (    -1          0          0      )
                  (     0          0          1      )

 cart.    s(29) = (  0.0000000 -1.0000000  0.0000000 )
                  ( -1.0000000  0.0000000  0.0000000 )
                  (  0.0000000  0.0000000  1.0000000 )


      isym = 30     inv. 180 deg rotation - cart. axis [1,-1,0]  

 cryst.   s(30) = (     0          1          0      )
                  (     1          0          0      )
                  (     0          0          1      )

 cart.    s(30) = (  0.0000000  1.0000000  0.0000000 )
                  (  1.0000000  0.0000000  0.0000000 )
                  (  0.0000000  0.0000000  1.0000000 )


      isym = 31     inv.  90 deg rotation - cart. axis [0,0,-1]  

 cryst.   s(31) = (     0          1          0      )
                  (    -1          0          0      )
                  (     0          0         -1      )

 cart.    s(31) = (  0.0000000 -1.0000000  0.0000000 )
                  (  1.0000000  0.0000000  0.0000000 )
                  (  0.0000000  0.0000000 -1.0000000 )


      isym = 32     inv.  90 deg rotation - cart. axis [0,0,1]   

 cryst.   s(32) = (     0         -1          0      )
                  (     1          0          0      )
                  (     0          0         -1      )

 cart.    s(32) = (  0.0000000  1.0000000  0.0000000 )
                  ( -1.0000000  0.0000000  0.0000000 )
                  (  0.0000000  0.0000000 -1.0000000 )


      isym = 33     inv. 180 deg rotation - cart. axis [1,0,1]   

 cryst.   s(33) = (     0          0         -1      )
                  (     0          1          0      )
                  (    -1          0          0      )

 cart.    s(33) = (  0.0000000  0.0000000 -1.0000000 )
                  (  0.0000000  1.0000000  0.0000000 )
                  ( -1.0000000  0.0000000  0.0000000 )


      isym = 34     inv. 180 deg rotation - cart. axis [-1,0,1]  

 cryst.   s(34) = (     0          0          1      )
                  (     0          1          0      )
                  (     1          0          0      )

 cart.    s(34) = (  0.0000000  0.0000000  1.0000000 )
                  (  0.0000000  1.0000000  0.0000000 )
                  (  1.0000000  0.0000000  0.0000000 )


      isym = 35     inv.  90 deg rotation - cart. axis [0,1,0]   

 cryst.   s(35) = (     0          0          1      )
                  (     0         -1          0      )
                  (    -1          0          0      )

 cart.    s(35) = (  0.0000000  0.0000000 -1.0000000 )
                  (  0.0000000 -1.0000000  0.0000000 )
                  (  1.0000000  0.0000000  0.0000000 )


      isym = 36     inv.  90 deg rotation - cart. axis [0,-1,0]  

 cryst.   s(36) = (     0          0         -1      )
                  (     0         -1          0      )
                  (     1          0          0      )

 cart.    s(36) = (  0.0000000  0.0000000  1.0000000 )
                  (  0.0000000 -1.0000000  0.0000000 )
                  ( -1.0000000  0.0000000  0.0000000 )


      isym = 37     inv. 180 deg rotation - cart. axis [0,1,1]   

 cryst.   s(37) = (     1          0          0      )
                  (     0          0         -1      )
                  (     0         -1          0      )

 cart.    s(37) = (  1.0000000  0.0000000  0.0000000 )
                  (  0.0000000  0.0000000 -1.0000000 )
                  (  0.0000000 -1.0000000  0.0000000 )


      isym = 38     inv. 180 deg rotation - cart. axis [0,1,-1]  

 cryst.   s(38) = (     1          0          0      )
                  (     0          0          1      )
                  (     0          1          0      )

 cart.    s(38) = (  1.0000000  0.0000000  0.0000000 )
                  (  0.0000000  0.0000000  1.0000000 )
                  (  0.0000000  1.0000000  0.0000000 )


      isym = 39     inv.  90 deg rotation - cart. axis [-1,0,0]  

 cryst.   s(39) = (    -1          0          0      )
                  (     0          0          1      )
                  (     0         -1          0      )

 cart.    s(39) = ( -1.0000000  0.0000000  0.0000000 )
                  (  0.0000000  0.0000000 -1.0000000 )
                  (  0.0000000  1.0000000  0.0000000 )


      isym = 40     inv.  90 deg rotation - cart. axis [1,0,0]   

 cryst.   s(40) = (    -1          0          0      )
                  (     0          0         -1      )
                  (     0          1          0      )

 cart.    s(40) = ( -1.0000000  0.0000000  0.0000000 )
                  (  0.0000000  0.0000000  1.0000000 )
                  (  0.0000000 -1.0000000  0.0000000 )


      isym = 41     inv. 120 deg rotation - cart. axis [-1,-1,-1]

 cryst.   s(41) = (     0          0         -1      )
                  (    -1          0          0      )
                  (     0         -1          0      )

 cart.    s(41) = (  0.0000000 -1.0000000  0.0000000 )
                  (  0.0000000  0.0000000 -1.0000000 )
                  ( -1.0000000  0.0000000  0.0000000 )


      isym = 42     inv. 120 deg rotation - cart. axis [-1,1,1]  

 cryst.   s(42) = (     0          0          1      )
                  (     1          0          0      )
                  (     0         -1          0      )

 cart.    s(42) = (  0.0000000  1.0000000  0.0000000 )
                  (  0.0000000  0.0000000 -1.0000000 )
                  (  1.0000000  0.0000000  0.0000000 )


      isym = 43     inv. 120 deg rotation - cart. axis [1,1,-1]  

 cryst.   s(43) = (     0          0          1      )
                  (    -1          0          0      )
                  (     0          1          0      )

 cart.    s(43) = (  0.0000000 -1.0000000  0.0000000 )
                  (  0.0000000  0.0000000  1.0000000 )
                  (  1.0000000  0.0000000  0.0000000 )


      isym = 44     inv. 120 deg rotation - cart. axis [1,-1,1]  

 cryst.   s(44) = (     0          0         -1      )
                  (     1          0          0      )
                  (     0          1          0      )

 cart.    s(44) = (  0.0000000  1.0000000  0.0000000 )
                  (  0.0000000  0.0000000  1.0000000 )
                  ( -1.0000000  0.0000000  0.0000000 )


      isym = 45     inv. 120 deg rotation - cart. axis [1,1,1]   

 cryst.   s(45) = (     0         -1          0      )
                  (     0          0         -1      )
                  (    -1          0          0      )

 cart.    s(45) = (  0.0000000  0.0000000 -1.0000000 )
                  ( -1.0000000  0.0000000  0.0000000 )
                  (  0.0000000 -1.0000000  0.0000000 )


      isym = 46     inv. 120 deg rotation - cart. axis [-1,1,-1] 

 cryst.   s(46) = (     0          1          0      )
                  (     0          0          1      )
                  (    -1          0          0      )

 cart.    s(46) = (  0.0000000  0.0000000 -1.0000000 )
                  (  1.0000000  0.0000000  0.0000000 )
                  (  0.0000000  1.0000000  0.0000000 )


      isym = 47     inv. 120 deg rotation - cart. axis [1,-1,-1] 

 cryst.   s(47) = (     0          1          0      )
                  (     0          0         -1      )
                  (     1          0          0      )

 cart.    s(47) = (  0.0000000  0.0000000  1.0000000 )
                  (  1.0000000  0.0000000  0.0000000 )
                  (  0.0000000 -1.0000000  0.0000000 )


      isym = 48     inv. 120 deg rotation - cart. axis [-1,-1,1] 

 cryst.   s(48) = (     0         -1          0      )
                  (     0          0          1      )
                  (     1          0          0      )

 cart.    s(48) = (  0.0000000  0.0000000  1.0000000 )
                  ( -1.0000000  0.0000000  0.0000000 )
                  (  0.0000000  1.0000000  0.0000000 )


     point group O_h (m-3m) 
     there are 10 classes
     the character table:

       E     8C3   3C2   6C4   6C2'  i     8S6   3s_h  6S4   6s_d 
A_1g   1.00  1.00  1.00  1.00  1.00  1.00  1.00  1.00  1.00  1.00
A_2g   1.00  1.00  1.00 -1.00 -1.00  1.00  1.00  1.00 -1.00 -1.00
E_g    2.00 -1.00  2.00  0.00  0.00  2.00 -1.00  2.00  0.00  0.00
T_1g   3.00  0.00 -1.00  1.00 -1.00  3.00  0.00 -1.00  1.00 -1.00
T_2g   3.00  0.00 -1.00 -1.00  1.00  3.00  0.00 -1.00 -1.00  1.00
A_1u   1.00  1.00  1.00  1.00  1.00 -1.00 -1.00 -1.00 -1.00 -1.00
A_2u   1.00  1.00  1.00 -1.00 -1.00 -1.00 -1.00 -1.00  1.00  1.00
E_u    2.00 -1.00  2.00  0.00  0.00 -2.00  1.00 -2.00  0.00  0.00
T_1u   3.00  0.00 -1.00  1.00 -1.00 -3.00  0.00  1.00 -1.00  1.00
T_2u   3.00  0.00 -1.00 -1.00  1.00 -3.00  0.00  1.00  1.00 -1.00

     the symmetry operations in each class and the name of the first element:

     E        1
          identity                                               
     8C3     17   19   20   18   24   21   22   23
          120 deg rotation - cart. axis [-1,-1,-1]               
     3C2      2    4    3
          180 deg rotation - cart. axis [0,0,1]                  
     6C4      7    8   15   16   12   11
           90 deg rotation - cart. axis [0,0,-1]                 
     6C2'     5    6   14   13   10    9
          180 deg rotation - cart. axis [1,1,0]                  
     i       25
          inversion                                              
     8S6     41   43   44   42   48   45   46   47
          inv. 120 deg rotation - cart. axis [-1,-1,-1]          
     3s_h    26   28   27
          inv. 180 deg rotation - cart. axis [0,0,1]             
     6S4     31   32   39   40   36   35
          inv.  90 deg rotation - cart. axis [0,0,-1]            
     6s_d    29   30   38   37   34   33
          inv. 180 deg rotation - cart. axis [1,1,0]             

   Cartesian axes

     site n.     atom                  positions (alat units)
         1           Au  tau(   1) = (   0.0000000   0.0000000   0.0000000  )
         2           Au  tau(   2) = (   0.0000000   0.5000000   0.5000000  )
         3           Au  tau(   3) = (   0.5000000   0.0000000   0.5000000  )
         4           Au  tau(   4) = (   0.5000000   0.5000000   0.0000000  )

   Crystallographic axes

     site n.     atom                  positions (cryst. coord.)
         1           Au  tau(   1) = (  0.0000000  0.0000000  0.0000000  )
         2           Au  tau(   2) = (  0.0000000  0.5000000  0.5000000  )
         3           Au  tau(   3) = (  0.5000000  0.0000000  0.5000000  )
         4           Au  tau(   4) = (  0.5000000  0.5000000  0.0000000  )

     number of k points=    56  Gaussian smearing, width (Ry)=  0.0030
                       cart. coord. in units 2pi/alat
        k(    1) = (   0.0000000   0.0000000   0.0000000), wk =   0.0015026
        k(    2) = (   0.0000000   0.0000000   0.0909091), wk =   0.0090158
        k(    3) = (   0.0000000   0.0000000   0.1818182), wk =   0.0090158
        k(    4) = (   0.0000000   0.0000000   0.2727273), wk =   0.0090158
        k(    5) = (   0.0000000   0.0000000   0.3636364), wk =   0.0090158
        k(    6) = (   0.0000000   0.0000000   0.4545455), wk =   0.0090158
        k(    7) = (   0.0000000   0.0909091   0.0909091), wk =   0.0180316
        k(    8) = (   0.0000000   0.0909091   0.1818182), wk =   0.0360631
        k(    9) = (   0.0000000   0.0909091   0.2727273), wk =   0.0360631
        k(   10) = (   0.0000000   0.0909091   0.3636364), wk =   0.0360631
        k(   11) = (   0.0000000   0.0909091   0.4545455), wk =   0.0360631
        k(   12) = (   0.0000000   0.1818182   0.1818182), wk =   0.0180316
        k(   13) = (   0.0000000   0.1818182   0.2727273), wk =   0.0360631
        k(   14) = (   0.0000000   0.1818182   0.3636364), wk =   0.0360631
        k(   15) = (   0.0000000   0.1818182   0.4545455), wk =   0.0360631
        k(   16) = (   0.0000000   0.2727273   0.2727273), wk =   0.0180316
        k(   17) = (   0.0000000   0.2727273   0.3636364), wk =   0.0360631
        k(   18) = (   0.0000000   0.2727273   0.4545455), wk =   0.0360631
        k(   19) = (   0.0000000   0.3636364   0.3636364), wk =   0.0180316
        k(   20) = (   0.0000000   0.3636364   0.4545455), wk =   0.0360631
        k(   21) = (   0.0000000   0.4545455   0.4545455), wk =   0.0180316
        k(   22) = (   0.0909091   0.0909091   0.0909091), wk =   0.0120210
        k(   23) = (   0.0909091   0.0909091   0.1818182), wk =   0.0360631
        k(   24) = (   0.0909091   0.0909091   0.2727273), wk =   0.0360631
        k(   25) = (   0.0909091   0.0909091   0.3636364), wk =   0.0360631
        k(   26) = (   0.0909091   0.0909091   0.4545455), wk =   0.0360631
        k(   27) = (   0.0909091   0.1818182   0.1818182), wk =   0.0360631
        k(   28) = (   0.0909091   0.1818182   0.2727273), wk =   0.0721262
        k(   29) = (   0.0909091   0.1818182   0.3636364), wk =   0.0721262
        k(   30) = (   0.0909091   0.1818182   0.4545455), wk =   0.0721262
        k(   31) = (   0.0909091   0.2727273   0.2727273), wk =   0.0360631
        k(   32) = (   0.0909091   0.2727273   0.3636364), wk =   0.0721262
        k(   33) = (   0.0909091   0.2727273   0.4545455), wk =   0.0721262
        k(   34) = (   0.0909091   0.3636364   0.3636364), wk =   0.0360631
        k(   35) = (   0.0909091   0.3636364   0.4545455), wk =   0.0721262
        k(   36) = (   0.0909091   0.4545455   0.4545455), wk =   0.0360631
        k(   37) = (   0.1818182   0.1818182   0.1818182), wk =   0.0120210
        k(   38) = (   0.1818182   0.1818182   0.2727273), wk =   0.0360631
        k(   39) = (   0.1818182   0.1818182   0.3636364), wk =   0.0360631
        k(   40) = (   0.1818182   0.1818182   0.4545455), wk =   0.0360631
        k(   41) = (   0.1818182   0.2727273   0.2727273), wk =   0.0360631
        k(   42) = (   0.1818182   0.2727273   0.3636364), wk =   0.0721262
        k(   43) = (   0.1818182   0.2727273   0.4545455), wk =   0.0721262
        k(   44) = (   0.1818182   0.3636364   0.3636364), wk =   0.0360631
        k(   45) = (   0.1818182   0.3636364   0.4545455), wk =   0.0721262
        k(   46) = (   0.1818182   0.4545455   0.4545455), wk =   0.0360631
        k(   47) = (   0.2727273   0.2727273   0.2727273), wk =   0.0120210
        k(   48) = (   0.2727273   0.2727273   0.3636364), wk =   0.0360631
        k(   49) = (   0.2727273   0.2727273   0.4545455), wk =   0.0360631
        k(   50) = (   0.2727273   0.3636364   0.3636364), wk =   0.0360631
        k(   51) = (   0.2727273   0.3636364   0.4545455), wk =   0.0721262
        k(   52) = (   0.2727273   0.4545455   0.4545455), wk =   0.0360631
        k(   53) = (   0.3636364   0.3636364   0.3636364), wk =   0.0120210
        k(   54) = (   0.3636364   0.3636364   0.4545455), wk =   0.0360631
        k(   55) = (   0.3636364   0.4545455   0.4545455), wk =   0.0360631
        k(   56) = (   0.4545455   0.4545455   0.4545455), wk =   0.0120210

                       cryst. coord.
        k(    1) = (   0.0000000   0.0000000   0.0000000), wk =   0.0015026
        k(    2) = (   0.0000000   0.0000000   0.0909091), wk =   0.0090158
        k(    3) = (   0.0000000   0.0000000   0.1818182), wk =   0.0090158
        k(    4) = (   0.0000000   0.0000000   0.2727273), wk =   0.0090158
        k(    5) = (   0.0000000   0.0000000   0.3636364), wk =   0.0090158
        k(    6) = (   0.0000000   0.0000000   0.4545455), wk =   0.0090158
        k(    7) = (   0.0000000   0.0909091   0.0909091), wk =   0.0180316
        k(    8) = (   0.0000000   0.0909091   0.1818182), wk =   0.0360631
        k(    9) = (   0.0000000   0.0909091   0.2727273), wk =   0.0360631
        k(   10) = (   0.0000000   0.0909091   0.3636364), wk =   0.0360631
        k(   11) = (   0.0000000   0.0909091   0.4545455), wk =   0.0360631
        k(   12) = (   0.0000000   0.1818182   0.1818182), wk =   0.0180316
        k(   13) = (   0.0000000   0.1818182   0.2727273), wk =   0.0360631
        k(   14) = (   0.0000000   0.1818182   0.3636364), wk =   0.0360631
        k(   15) = (   0.0000000   0.1818182   0.4545455), wk =   0.0360631
        k(   16) = (   0.0000000   0.2727273   0.2727273), wk =   0.0180316
        k(   17) = (   0.0000000   0.2727273   0.3636364), wk =   0.0360631
        k(   18) = (   0.0000000   0.2727273   0.4545455), wk =   0.0360631
        k(   19) = (   0.0000000   0.3636364   0.3636364), wk =   0.0180316
        k(   20) = (   0.0000000   0.3636364   0.4545455), wk =   0.0360631
        k(   21) = (   0.0000000   0.4545455   0.4545455), wk =   0.0180316
        k(   22) = (   0.0909091   0.0909091   0.0909091), wk =   0.0120210
        k(   23) = (   0.0909091   0.0909091   0.1818182), wk =   0.0360631
        k(   24) = (   0.0909091   0.0909091   0.2727273), wk =   0.0360631
        k(   25) = (   0.0909091   0.0909091   0.3636364), wk =   0.0360631
        k(   26) = (   0.0909091   0.0909091   0.4545455), wk =   0.0360631
        k(   27) = (   0.0909091   0.1818182   0.1818182), wk =   0.0360631
        k(   28) = (   0.0909091   0.1818182   0.2727273), wk =   0.0721262
        k(   29) = (   0.0909091   0.1818182   0.3636364), wk =   0.0721262
        k(   30) = (   0.0909091   0.1818182   0.4545455), wk =   0.0721262
        k(   31) = (   0.0909091   0.2727273   0.2727273), wk =   0.0360631
        k(   32) = (   0.0909091   0.2727273   0.3636364), wk =   0.0721262
        k(   33) = (   0.0909091   0.2727273   0.4545455), wk =   0.0721262
        k(   34) = (   0.0909091   0.3636364   0.3636364), wk =   0.0360631
        k(   35) = (   0.0909091   0.3636364   0.4545455), wk =   0.0721262
        k(   36) = (   0.0909091   0.4545455   0.4545455), wk =   0.0360631
        k(   37) = (   0.1818182   0.1818182   0.1818182), wk =   0.0120210
        k(   38) = (   0.1818182   0.1818182   0.2727273), wk =   0.0360631
        k(   39) = (   0.1818182   0.1818182   0.3636364), wk =   0.0360631
        k(   40) = (   0.1818182   0.1818182   0.4545455), wk =   0.0360631
        k(   41) = (   0.1818182   0.2727273   0.2727273), wk =   0.0360631
        k(   42) = (   0.1818182   0.2727273   0.3636364), wk =   0.0721262
        k(   43) = (   0.1818182   0.2727273   0.4545455), wk =   0.0721262
        k(   44) = (   0.1818182   0.3636364   0.3636364), wk =   0.0360631
        k(   45) = (   0.1818182   0.3636364   0.4545455), wk =   0.0721262
        k(   46) = (   0.1818182   0.4545455   0.4545455), wk =   0.0360631
        k(   47) = (   0.2727273   0.2727273   0.2727273), wk =   0.0120210
        k(   48) = (   0.2727273   0.2727273   0.3636364), wk =   0.0360631
        k(   49) = (   0.2727273   0.2727273   0.4545455), wk =   0.0360631
        k(   50) = (   0.2727273   0.3636364   0.3636364), wk =   0.0360631
        k(   51) = (   0.2727273   0.3636364   0.4545455), wk =   0.0721262
        k(   52) = (   0.2727273   0.4545455   0.4545455), wk =   0.0360631
        k(   53) = (   0.3636364   0.3636364   0.3636364), wk =   0.0120210
        k(   54) = (   0.3636364   0.3636364   0.4545455), wk =   0.0360631
        k(   55) = (   0.3636364   0.4545455   0.4545455), wk =   0.0360631
        k(   56) = (   0.4545455   0.4545455   0.4545455), wk =   0.0120210

     Dense  grid:    40243 G-vectors     FFT dimensions: (  45,  45,  45)

     Smooth grid:    10131 G-vectors     FFT dimensions: (  27,  27,  27)

     Dynamical RAM for                 wfc:       0.03 MB

     Dynamical RAM for     wfc (w. buffer):       1.79 MB

     Dynamical RAM for           str. fact:       0.04 MB

     Dynamical RAM for           local pot:       0.00 MB

     Dynamical RAM for          nlocal pot:       0.12 MB

     Dynamical RAM for                qrad:       2.60 MB

     Dynamical RAM for          rho,v,vnew:       0.25 MB

     Dynamical RAM for               rhoin:       0.08 MB

     Dynamical RAM for            rho*nmix:       0.61 MB

     Dynamical RAM for           G-vectors:       0.15 MB

     Dynamical RAM for          h,s,v(r/c):       0.01 MB

     Dynamical RAM for          <psi|beta>:       0.04 MB

     Dynamical RAM for                 psi:       0.06 MB

     Dynamical RAM for                hpsi:       0.06 MB

     Dynamical RAM for                spsi:       0.06 MB

     Dynamical RAM for      wfcinit/wfcrot:       0.12 MB

     Dynamical RAM for           addusdens:      13.68 MB

     Dynamical RAM for          addusforce:      13.96 MB

     Dynamical RAM for         addusstress:      14.56 MB

     Estimated static dynamical RAM per process >       5.95 MB

     Estimated max dynamical RAM per process >      20.51 MB

     Estimated total dynamical RAM >     328.23 MB

     Initial potential from superposition of free atoms

     starting charge   43.99951, renormalised to   44.00000
     Starting wfcs are   36 randomized atomic wfcs

     total cpu time spent up to now is        0.5 secs

     Self-consistent Calculation

     iteration #  1     ecut=    30.00 Ry     beta= 0.30
     Davidson diagonalization with overlap
     ethr =  1.00E-02,  avg # of iterations =  2.0

     Threshold (ethr) on eigenvalues was too large:
     Diagonalizing with lowered threshold

     Davidson diagonalization with overlap
     ethr =  4.84E-04,  avg # of iterations =  1.8

     total cpu time spent up to now is        1.6 secs

     total energy              =    -459.93103680 Ry
     estimated scf accuracy    <       0.23323622 Ry

     iteration #  2     ecut=    30.00 Ry     beta= 0.30
     Davidson diagonalization with overlap
     ethr =  5.30E-04,  avg # of iterations =  1.0

     total cpu time spent up to now is        2.1 secs

     total energy              =    -459.93693382 Ry
     estimated scf accuracy    <       0.03401924 Ry

     iteration #  3     ecut=    30.00 Ry     beta= 0.30
     Davidson diagonalization with overlap
     ethr =  7.73E-05,  avg # of iterations =  2.1

     total cpu time spent up to now is        2.8 secs

     total energy              =    -459.94462109 Ry
     estimated scf accuracy    <       0.00269881 Ry

     iteration #  4     ecut=    30.00 Ry     beta= 0.30
     Davidson diagonalization with overlap
     ethr =  6.13E-06,  avg # of iterations =  2.5

     total cpu time spent up to now is        3.6 secs

     total energy              =    -459.94492434 Ry
     estimated scf accuracy    <       0.00117309 Ry

     iteration #  5     ecut=    30.00 Ry     beta= 0.30
     Davidson diagonalization with overlap
     ethr =  2.67E-06,  avg # of iterations =  1.9

     total cpu time spent up to now is        4.2 secs

     total energy              =    -459.94507669 Ry
     estimated scf accuracy    <       0.00000758 Ry

     iteration #  6     ecut=    30.00 Ry     beta= 0.30
     Davidson diagonalization with overlap
     ethr =  1.72E-08,  avg # of iterations =  6.1

     total cpu time spent up to now is        5.7 secs

     total energy              =    -459.94507737 Ry
     estimated scf accuracy    <       0.00004977 Ry

     iteration #  7     ecut=    30.00 Ry     beta= 0.30
     Davidson diagonalization with overlap
     ethr =  1.72E-08,  avg # of iterations =  3.0

     total cpu time spent up to now is        6.5 secs

     total energy              =    -459.94508522 Ry
     estimated scf accuracy    <       0.00000059 Ry

     iteration #  8     ecut=    30.00 Ry     beta= 0.30
     Davidson diagonalization with overlap
     ethr =  1.33E-09,  avg # of iterations =  2.7

     total cpu time spent up to now is        7.3 secs

     total energy              =    -459.94508538 Ry
     estimated scf accuracy    <       0.00000007 Ry

     iteration #  9     ecut=    30.00 Ry     beta= 0.30
     Davidson diagonalization with overlap
     ethr =  1.65E-10,  avg # of iterations =  3.6

     total cpu time spent up to now is        8.2 secs

     End of self-consistent calculation

          k = 0.0000 0.0000 0.0000 (  1309 PWs)   bands (ev):

     5.8272   8.6167   8.6167   8.6167   8.9359   8.9359   8.9359  11.0118
    11.0118  11.0118  12.5342  12.5342  13.6982  13.6982  13.6982  14.0734
    14.0734  14.0734  14.0734  14.0734  14.0734  16.7397  16.7397  16.7397
    21.5568  21.5568

     occupation numbers 
     1.0000   1.0000   1.0000   1.0000   1.0000   1.0000   1.0000   1.0000
     1.0000   1.0000   1.0000   1.0000   1.0000   1.0000   1.0000   1.0000
     1.0000   1.0000   1.0000   1.0000   1.0000   0.0000   0.0000   0.0000
     0.0000   0.0000

          k = 0.0000 0.0000 0.0909 (  1285 PWs)   bands (ev):

     5.9241   8.6500   8.6816   8.6816   8.9713   8.9897   8.9897  10.9608
    11.0554  11.0554  12.4797  12.5557  13.6201  13.6201  13.6724  13.7219
    13.7219  13.9781  13.9781  14.0736  14.0736  16.0740  17.1579  17.1579
    21.4547  21.4547

     occupation numbers 
     1.0000   1.0000   1.0000   1.0000   1.0000   1.0000   1.0000   1.0000
     1.0000   1.0000   1.0000   1.0000   1.0000   1.0000   1.0000   1.0000
     1.0000   1.0000   1.0000   1.0000   1.0000   0.0000   0.0000   0.0000
     0.0000   0.0000

          k = 0.0000 0.0000 0.1818 (  1289 PWs)   bands (ev):

     6.2107   8.7364   8.8683   8.8683   9.0758   9.1508   9.1508  10.8148
    11.1853  11.1853  12.3252  12.6191  13.0042  13.0042  13.3949  13.3949
    13.5973  13.7144  13.7144  14.0740  14.0740  14.7656  18.0722  18.0722
    21.1974  21.1974

     occupation numbers 
     1.0000   1.0000   1.0000   1.0000   1.0000   1.0000   1.0000   1.0000
     1.0000   1.0000   1.0000   1.0000   1.0000   1.0000   1.0000   1.0000
     1.0000   1.0000   1.0000   1.0000   1.0000   1.0000   0.0000   0.0000
     0.0000   0.0000

          k = 0.0000 0.0000 0.2727 (  1277 PWs)   bands (ev):

     6.6724   8.8265   9.1486   9.1486   9.2443   9.4183   9.4183  10.5928
    11.3986  11.3986  12.0990  12.2296  12.2296  12.7202  13.0572  13.0572
    13.3357  13.3357  13.4482  13.4810  14.0746  14.0746  19.1645  19.1645
    20.8945  20.8945

     occupation numbers 
     1.0000   1.0000   1.0000   1.0000   1.0000   1.0000   1.0000   1.0000
     1.0000   1.0000   1.0000   1.0000   1.0000   1.0000   1.0000   1.0000
     1.0000   1.0000   1.0000   1.0000   1.0000   1.0000   0.0000   0.0000
     0.0000   0.0000

          k = 0.0000 0.0000 0.3636 (  1266 PWs)   bands (ev):

     7.2756   8.8090   9.4614   9.4614   9.4680   9.7905   9.7905  10.3205
    11.4955  11.4955  11.6896  11.6896  11.8557  12.3946  12.6851  12.6851
    12.8526  12.9013  12.9013  13.3347  14.0751  14.0751  20.3213  20.3213
    20.6468  20.6468

     occupation numbers 
     1.0000   1.0000   1.0000   1.0000   1.0000   1.0000   1.0000   1.0000
     1.0000   1.0000   1.0000   1.0000   1.0000   1.0000   1.0000   1.0000
     1.0000   1.0000   1.0000   1.0000   1.0000   1.0000   0.0000   0.0000
     0.0000   0.0000

          k = 0.0000 0.0000 0.4545 (  1250 PWs)   bands (ev):

     7.9449   8.5201   9.6892   9.6892   9.7343  10.0257  10.2645  10.2645
    10.8354  10.8354  11.6965  11.8061  12.0487  12.0487  12.4192  12.4192
    12.4605  12.4605  13.0070  13.1721  14.0754  14.0754  20.5121  20.5121
    21.4848  21.4849

     occupation numbers 
     1.0000   1.0000   1.0000   1.0000   1.0000   1.0000   1.0000   1.0000
     1.0000   1.0000   1.0000   1.0000   1.0000   1.0000   1.0000   1.0000
     1.0000   1.0000   1.0000   1.0000   1.0000   1.0000   0.0000   0.0000
     0.0000   0.0000

          k = 0.0000 0.0909 0.0909 (  1281 PWs)   bands (ev):

     6.0198   8.7157   8.7157   8.7369   9.0243   9.0243   9.0500  10.9389
    11.0717  11.0944  12.4651  12.5434  13.4954  13.4986  13.4986  13.5477
    13.6987  13.6987  13.9780  13.9780  14.0112  16.4981  16.4981  17.5143
    21.3343  22.2793

     occupation numbers 
     1.0000   1.0000   1.0000   1.0000   1.0000   1.0000   1.0000   1.0000
     1.0000   1.0000   1.0000   1.0000   1.0000   1.0000   1.0000   1.0000
     1.0000   1.0000   1.0000   1.0000   1.0000   0.0000   0.0000   0.0000
     0.0000   0.0000

          k = 0.0000 0.0909 0.1818 (  1286 PWs)   bands (ev):

     6.3026   8.8043   8.8973   8.9047   9.1263   9.1829   9.2277  10.8116
    11.1878  11.2090  12.3333  12.6030  12.8207  12.8902  13.1616  13.3375
    13.4334  13.6056  13.7135  13.9775  13.9782  15.2786  17.3492  18.3513
    21.0251  22.0270

     occupation numbers 
     1.0000   1.0000   1.0000   1.0000   1.0000   1.0000   1.0000   1.0000
     1.0000   1.0000   1.0000   1.0000   1.0000   1.0000   1.0000   1.0000
     1.0000   1.0000   1.0000   1.0000   1.0000   1.0000   0.0000   0.0000
     0.0000   0.0000

          k = 0.0000 0.0909 0.2727 (  1271 PWs)   bands (ev):

     6.7582   8.8977   9.1479   9.1895   9.2908   9.4461   9.5078  10.6000
    11.3849  11.3979  12.0654  12.1341  12.1735  12.6214  12.7195  13.0194
    13.1025  13.3340  13.4243  13.9711  13.9766  14.1999  18.2664  19.3967
    20.6444  21.7900

     occupation numbers 
     1.0000   1.0000   1.0000   1.0000   1.0000   1.0000   1.0000   1.0000
     1.0000   1.0000   1.0000   1.0000   1.0000   1.0000   1.0000   1.0000
     1.0000   1.0000   1.0000   1.0000   1.0000   1.0000   0.0000   0.0000
     0.0000   0.0000

          k = 0.0000 0.0909 0.3636 (  1266 PWs)   bands (ev):

     7.3537   8.8821   9.4569   9.5091   9.5092   9.8116   9.8569  10.3372
    11.3609  11.4724  11.5402  11.6876  11.9866  12.0072  12.6683  12.7334
    12.8753  12.8991  13.0704  13.5704  13.9704  13.9753  19.0725  20.2909
    20.5263  21.7576

     occupation numbers 
     1.0000   1.0000   1.0000   1.0000   1.0000   1.0000   1.0000   1.0000
     1.0000   1.0000   1.0000   1.0000   1.0000   1.0000   1.0000   1.0000
     1.0000   1.0000   1.0000   1.0000   1.0000   1.0000   0.0000   0.0000
     0.0000   0.0000

          k = 0.0000 0.0909 0.4545 (  1263 PWs)   bands (ev):

     8.0162   8.5909   9.7212   9.7418   9.7683  10.0515  10.2525  10.2760
    10.7470  10.8331  11.5117  11.5744  12.0463  12.2031  12.4268  12.4538
    12.4581  12.6007  13.0621  13.2779  13.9718  13.9736  19.6319  19.9828
    21.6744  22.0696

     occupation numbers 
     1.0000   1.0000   1.0000   1.0000   1.0000   1.0000   1.0000   1.0000
     1.0000   1.0000   1.0000   1.0000   1.0000   1.0000   1.0000   1.0000
     1.0000   1.0000   1.0000   1.0000   1.0000   1.0000   0.0000   0.0000
     0.0000   0.0000

          k = 0.0000 0.1818 0.1818 (  1273 PWs)   bands (ev):

     6.5742   8.9995   9.0004   9.0004   9.2775   9.2775   9.4342  10.7548
    11.2474  11.2769  12.2888  12.4152  12.4152  12.5312  12.6323  13.1674
    13.4162  13.4162  13.7110  13.7110  13.8288  16.1157  16.1157  19.0647
    20.5747  23.5510

     occupation numbers 
     1.0000   1.0000   1.0000   1.0000   1.0000   1.0000   1.0000   1.0000
     1.0000   1.0000   1.0000   1.0000   1.0000   1.0000   1.0000   1.0000
     1.0000   1.0000   1.0000   1.0000   1.0000   0.0000   0.0000   0.0000
     0.0000   0.0000

          k = 0.0000 0.1818 0.2727 (  1276 PWs)   bands (ev):

     7.0110   9.1046   9.1901   9.2990   9.4296   9.5276   9.7237  10.5999
    11.3657  11.4210  11.6925  11.9070  11.9915  12.1571  12.7820  12.9021
    13.1270  13.2680  13.3296  13.7072  13.7456  15.0102  16.9569  20.0067
    20.0186  23.0684

     occupation numbers 
     1.0000   1.0000   1.0000   1.0000   1.0000   1.0000   1.0000   1.0000
     1.0000   1.0000   1.0000   1.0000   1.0000   1.0000   1.0000   1.0000
     1.0000   1.0000   1.0000   1.0000   1.0000   1.0000   0.0000   0.0000
     0.0000   0.0000

          k = 0.0000 0.1818 0.3636 (  1266 PWs)   bands (ev):

     7.5822   9.0943   9.4670   9.6305   9.6422   9.8731  10.0282  10.3772
    11.0472  11.3850  11.3959  11.4347  11.6945  12.1041  12.6058  12.7860
    12.8939  12.9816  13.0122  13.7030  13.7119  14.2011  17.7215  19.4499
    21.0898  22.7376

     occupation numbers 
     1.0000   1.0000   1.0000   1.0000   1.0000   1.0000   1.0000   1.0000
     1.0000   1.0000   1.0000   1.0000   1.0000   1.0000   1.0000   1.0000
     1.0000   1.0000   1.0000   1.0000   1.0000   1.0000   0.0000   0.0000
     0.0000   0.0000

          k = 0.0000 0.1818 0.4545 (  1264 PWs)   bands (ev):

     8.2224   8.7934   9.7884   9.8675   9.8948  10.1238  10.2545  10.3081
    10.5281  10.8221  11.2150  11.2720  12.0455  12.2799  12.4220  12.4539
    12.4986  12.6122  13.3034  13.6729  13.6998  13.7008  18.3716  18.9248
    22.2033  22.6366

     occupation numbers 
     1.0000   1.0000   1.0000   1.0000   1.0000   1.0000   1.0000   1.0000
     1.0000   1.0000   1.0000   1.0000   1.0000   1.0000   1.0000   1.0000
     1.0000   1.0000   1.0000   1.0000   1.0000   1.0000   0.0000   0.0000
     0.0000   0.0000

          k = 0.0000 0.2727 0.2727 (  1276 PWs)   bands (ev):

     7.4160   9.3109   9.4245   9.4245   9.6576   9.6576  10.0002  10.5432
    11.2615  11.2615  11.3549  11.5265  11.6712  12.0805  12.7057  12.9955
    13.0224  13.0224  13.3242  13.3242  13.5400  15.7979  15.7979  19.2351
    20.8916  23.0625

     occupation numbers 
     1.0000   1.0000   1.0000   1.0000   1.0000   1.0000   1.0000   1.0000
     1.0000   1.0000   1.0000   1.0000   1.0000   1.0000   1.0000   1.0000
     1.0000   1.0000   1.0000   1.0000   1.0000   0.0038   0.0038   0.0000
     0.0000   0.0000

          k = 0.0000 0.2727 0.3636 (  1271 PWs)   bands (ev):

     7.9433   9.4194   9.5193   9.8091   9.8271   9.9689  10.2573  10.4100
    10.6969  10.9403  11.2482  11.2906  11.7465  12.0317  12.4755  12.7238
    12.7740  12.8905  13.3211  13.3239  13.4134  14.8926  16.5344  18.5048
    21.9050  22.9111

     occupation numbers 
     1.0000   1.0000   1.0000   1.0000   1.0000   1.0000   1.0000   1.0000
     1.0000   1.0000   1.0000   1.0000   1.0000   1.0000   1.0000   1.0000
     1.0000   1.0000   1.0000   1.0000   1.0000   1.0000   0.0000   0.0000
     0.0000   0.0000

          k = 0.0000 0.2727 0.4545 (  1266 PWs)   bands (ev):

     8.5380   9.0938   9.8166  10.0226  10.1319  10.2255  10.2534  10.3528
    10.3558  10.7904  10.9194  11.1074  12.0664  12.1650  12.3473  12.4489
    12.4529  12.4582  13.3266  13.3512  13.7305  14.2308  17.2092  17.8464
    22.9114  23.1062

     occupation numbers 
     1.0000   1.0000   1.0000   1.0000   1.0000   1.0000   1.0000   1.0000
     1.0000   1.0000   1.0000   1.0000   1.0000   1.0000   1.0000   1.0000
     1.0000   1.0000   1.0000   1.0000   1.0000   1.0000   0.0000   0.0000
     0.0000   0.0000

          k = 0.0000 0.3636 0.3636 (  1274 PWs)   bands (ev):

     8.4046   9.6273   9.7905   9.7905  10.0885  10.0885  10.3983  10.4741
    10.5493  10.5493  11.0176  11.2092  11.8887  11.9248  12.2931  12.5131
    12.5131  12.8977  12.8977  13.1684  13.7488  15.5756  15.5756  17.6494
    22.8743  22.9650

     occupation numbers 
     1.0000   1.0000   1.0000   1.0000   1.0000   1.0000   1.0000   1.0000
     1.0000   1.0000   1.0000   1.0000   1.0000   1.0000   1.0000   1.0000
     1.0000   1.0000   1.0000   1.0000   1.0000   1.0000   1.0000   0.0000
     0.0000   0.0000

          k = 0.0000 0.3636 0.4545 (  1273 PWs)   bands (ev):

     8.9172   9.4168   9.7930   9.9581  10.2156  10.3279  10.3961  10.4276
    10.5479  10.7199  10.7499  11.0248  11.9797  12.1416  12.1788  12.2196
    12.2727  12.4896  12.9305  13.0116  14.2473  14.8357  16.2397  16.9115
    23.1944  23.6388

     occupation numbers 
     1.0000   1.0000   1.0000   1.0000   1.0000   1.0000   1.0000   1.0000
     1.0000   1.0000   1.0000   1.0000   1.0000   1.0000   1.0000   1.0000
     1.0000   1.0000   1.0000   1.0000   1.0000   1.0000   0.0000   0.0000
     0.0000   0.0000

          k = 0.0000 0.4545 0.4545 (  1272 PWs)   bands (ev):

     9.3008   9.6474   9.6474   9.7481  10.3979  10.4181  10.4181  10.5949
    10.7056  10.7263  10.7263  10.9399  11.8885  12.0096  12.0250  12.0250
    12.3061  12.5753  12.5753  12.7450  14.8181  15.4625  15.4625  16.1350
    23.6483  24.3060

     occupation numbers 
     1.0000   1.0000   1.0000   1.0000   1.0000   1.0000   1.0000   1.0000
     1.0000   1.0000   1.0000   1.0000   1.0000   1.0000   1.0000   1.0000
     1.0000   1.0000   1.0000   1.0000   1.0000   1.0000   1.0000   0.0000
     0.0000   0.0000

          k = 0.0909 0.0909 0.0909 (  1282 PWs)   bands (ev):

     6.1139   8.7708   8.7708   8.7708   9.0845   9.0845   9.0845  10.9213
    11.1073  11.1073  12.4937  12.4937  13.3602  13.3602  13.3602  13.4776
    13.4776  13.4776  13.9718  13.9718  13.9718  16.8397  16.8397  16.8397
    22.1413  22.1413

     occupation numbers 
     1.0000   1.0000   1.0000   1.0000   1.0000   1.0000   1.0000   1.0000
     1.0000   1.0000   1.0000   1.0000   1.0000   1.0000   1.0000   1.0000
     1.0000   1.0000   1.0000   1.0000   1.0000   0.0000   0.0000   0.0000
     0.0000   0.0000

          k = 0.0909 0.0909 0.1818 (  1280 PWs)   bands (ev):

     6.3924   8.8588   8.9306   8.9306   9.1863   9.2619   9.2619  10.8116
    11.2042  11.2135  12.3568  12.5776  12.7315  12.7315  12.9735  13.2773
    13.3006  13.3006  13.8635  13.9403  13.9403  15.6183  17.5979  17.5979
    21.7988  21.7988

     occupation numbers 
     1.0000   1.0000   1.0000   1.0000   1.0000   1.0000   1.0000   1.0000
     1.0000   1.0000   1.0000   1.0000   1.0000   1.0000   1.0000   1.0000
     1.0000   1.0000   1.0000   1.0000   1.0000   0.9998   0.0000   0.0000
     0.0000   0.0000

          k = 0.0909 0.0909 0.2727 (  1275 PWs)   bands (ev):

     6.8404   8.9519   9.1808   9.1808   9.3498   9.5407   9.5407  10.6131
    11.3731  11.3885  12.0241  12.0241  12.1828  12.3976  12.7109  12.9787
    13.0225  13.0225  13.7048  13.9127  13.9127  14.4837  18.4563  18.4563
    21.4221  21.4221

     occupation numbers 
     1.0000   1.0000   1.0000   1.0000   1.0000   1.0000   1.0000   1.0000
     1.0000   1.0000   1.0000   1.0000   1.0000   1.0000   1.0000   1.0000
     1.0000   1.0000   1.0000   1.0000   1.0000   1.0000   0.0000   0.0000
     0.0000   0.0000

          k = 0.0909 0.0909 0.3636 (  1265 PWs)   bands (ev):

     7.4258   8.9367   9.4933   9.4933   9.5640   9.8810   9.8810  10.3621
    11.3556  11.3556  11.4838  11.6283  11.7977  12.1360  12.6273  12.6902
    12.6902  12.8844  13.5118  13.5900  13.8975  13.8975  19.2012  19.2012
    21.1853  21.1853

     occupation numbers 
     1.0000   1.0000   1.0000   1.0000   1.0000   1.0000   1.0000   1.0000
     1.0000   1.0000   1.0000   1.0000   1.0000   1.0000   1.0000   1.0000
     1.0000   1.0000   1.0000   1.0000   1.0000   1.0000   0.0000   0.0000
     0.0000   0.0000

          k = 0.0909 0.0909 0.4545 (  1269 PWs)   bands (ev):

     8.0777   8.6462   9.7701   9.7701   9.8150  10.0877  10.2259  10.2259
    10.7963  10.7963  11.4210  11.4465  11.9251  12.2653  12.4143  12.4400
    12.4400  12.9146  13.0856  13.2999  13.8912  13.8912  19.6138  19.6138
    21.1614  21.1614

     occupation numbers 
     1.0000   1.0000   1.0000   1.0000   1.0000   1.0000   1.0000   1.0000
     1.0000   1.0000   1.0000   1.0000   1.0000   1.0000   1.0000   1.0000
     1.0000   1.0000   1.0000   1.0000   1.0000   1.0000   0.0000   0.0000
     0.0000   0.0000

          k = 0.0909 0.1818 0.1818 (  1276 PWs)   bands (ev):

     6.6572   9.0165   9.0165   9.0264   9.3635   9.3635   9.4713  10.7679
    11.2529  11.2710  12.3427  12.3427  12.3442  12.4034  12.5941  13.0563
    13.1292  13.1292  13.8444  13.8444  13.8589  16.3324  16.3324  18.2069
    21.2360  23.0907

     occupation numbers 
     1.0000   1.0000   1.0000   1.0000   1.0000   1.0000   1.0000   1.0000
     1.0000   1.0000   1.0000   1.0000   1.0000   1.0000   1.0000   1.0000
     1.0000   1.0000   1.0000   1.0000   1.0000   0.0000   0.0000   0.0000
     0.0000   0.0000

          k = 0.0909 0.1818 0.2727 (  1273 PWs)   bands (ev):

     7.0822   9.1059   9.2096   9.2629   9.5262   9.6413   9.7604  10.6314
    11.3537  11.3906  11.6738  11.8402  11.8803  12.2420  12.7548  12.8173
    12.8315  12.9381  13.6886  13.7713  13.7725  15.1587  17.1204  18.9256
    20.6182  22.3937

     occupation numbers 
     1.0000   1.0000   1.0000   1.0000   1.0000   1.0000   1.0000   1.0000
     1.0000   1.0000   1.0000   1.0000   1.0000   1.0000   1.0000   1.0000
     1.0000   1.0000   1.0000   1.0000   1.0000   1.0000   0.0000   0.0000
     0.0000   0.0000

          k = 0.0909 0.1818 0.3636 (  1263 PWs)   bands (ev):

     7.6358   9.0881   9.4796   9.5786   9.7309   9.9618  10.0491  10.4273
    11.0847  11.3300  11.3651  11.3795  11.5910  12.2677  12.4839  12.5596
    12.6728  12.9904  13.4325  13.7110  13.7131  14.2335  17.8629  19.3391
    20.3567  21.7889

     occupation numbers 
     1.0000   1.0000   1.0000   1.0000   1.0000   1.0000   1.0000   1.0000
     1.0000   1.0000   1.0000   1.0000   1.0000   1.0000   1.0000   1.0000
     1.0000   1.0000   1.0000   1.0000   1.0000   1.0000   0.0000   0.0000
     0.0000   0.0000

          k = 0.0909 0.1818 0.4545 (  1268 PWs)   bands (ev):

     8.2529   8.7997   9.8084   9.9028   9.9563  10.1356  10.1757  10.1933
    10.7389  10.8896  11.1757  11.2434  11.8419  12.1438  12.3791  12.4302
    12.5633  13.0206  13.2750  13.6383  13.6829  13.6843  18.5062  19.0377
    20.7667  21.2746

     occupation numbers 
     1.0000   1.0000   1.0000   1.0000   1.0000   1.0000   1.0000   1.0000
     1.0000   1.0000   1.0000   1.0000   1.0000   1.0000   1.0000   1.0000
     1.0000   1.0000   1.0000   1.0000   1.0000   1.0000   0.0000   0.0000
     0.0000   0.0000

          k = 0.0909 0.2727 0.2727 (  1271 PWs)   bands (ev):

     7.4673   9.3143   9.3400   9.3400   9.8077   9.8077  10.0313  10.6036
    11.2636  11.2636  11.3440  11.4508  11.6079  12.2110  12.5776  12.7011
    12.7011  12.9624  13.5780  13.5780  13.6206  15.9042  15.9042  19.2296
    20.0674  23.3395

     occupation numbers 
     1.0000   1.0000   1.0000   1.0000   1.0000   1.0000   1.0000   1.0000
     1.0000   1.0000   1.0000   1.0000   1.0000   1.0000   1.0000   1.0000
     1.0000   1.0000   1.0000   1.0000   1.0000   0.0000   0.0000   0.0000
     0.0000   0.0000

          k = 0.0909 0.2727 0.3636 (  1275 PWs)   bands (ev):

     7.9638   9.3027   9.5003   9.6293  10.0089  10.1264  10.2569  10.5030
    10.7933  10.9522  11.2646  11.2824  11.5812  12.2520  12.3616  12.3772
    12.5166  13.2888  13.2962  13.4713  13.4931  14.9215  16.6280  18.6535
    20.5225  22.4937

     occupation numbers 
     1.0000   1.0000   1.0000   1.0000   1.0000   1.0000   1.0000   1.0000
     1.0000   1.0000   1.0000   1.0000   1.0000   1.0000   1.0000   1.0000
     1.0000   1.0000   1.0000   1.0000   1.0000   1.0000   0.0000   0.0000
     0.0000   0.0000

          k = 0.0909 0.2727 0.4545 (  1269 PWs)   bands (ev):

     8.5143   9.0134   9.7548   9.8981  10.1733  10.1914  10.2680  10.3550
    10.7299  10.9204  10.9740  11.1021  11.7801  12.0524  12.2392  12.3165
    12.5134  12.9111  13.4142  13.4205  13.6930  14.2063  17.3096  17.9703
    21.1516  21.7865

     occupation numbers 
     1.0000   1.0000   1.0000   1.0000   1.0000   1.0000   1.0000   1.0000
     1.0000   1.0000   1.0000   1.0000   1.0000   1.0000   1.0000   1.0000
     1.0000   1.0000   1.0000   1.0000   1.0000   1.0000   0.0000   0.0000
     0.0000   0.0000

          k = 0.0909 0.3636 0.3636 (  1270 PWs)   bands (ev):

     8.3750   9.5277   9.5277   9.5635  10.3636  10.3636  10.4183  10.5442
    10.6231  10.6231  11.1635  11.2134  11.6016  12.1548  12.2432  12.2432
    12.2566  13.1684  13.1684  13.2902  13.7105  15.6050  15.6050  17.7625
    21.1022  23.3220

     occupation numbers 
     1.0000   1.0000   1.0000   1.0000   1.0000   1.0000   1.0000   1.0000
     1.0000   1.0000   1.0000   1.0000   1.0000   1.0000   1.0000   1.0000
     1.0000   1.0000   1.0000   1.0000   1.0000   1.0000   1.0000   0.0000
     0.0000   0.0000

          k = 0.0909 0.3636 0.4545 (  1267 PWs)   bands (ev):

     8.8191   9.2318   9.6501   9.6707  10.4166  10.4343  10.4886  10.5306
    10.7640  10.7742  11.0352  11.0379  11.7127  11.9463  12.0342  12.0928
    12.4527  12.8003  13.1067  13.1478  14.2111  14.8178  16.2808  16.9804
    21.7516  22.4737

     occupation numbers 
     1.0000   1.0000   1.0000   1.0000   1.0000   1.0000   1.0000   1.0000
     1.0000   1.0000   1.0000   1.0000   1.0000   1.0000   1.0000   1.0000
     1.0000   1.0000   1.0000   1.0000   1.0000   1.0000   0.0000   0.0000
     0.0000   0.0000

          k = 0.0909 0.4545 0.4545 (  1267 PWs)   bands (ev):

     9.1246   9.4089   9.4089   9.5394  10.5545  10.6034  10.6034  10.6334
    10.8820  10.8820  11.0034  11.0418  11.6903  11.8402  11.8402  11.8543
    12.5341  12.7833  12.7833  12.9098  14.7894  15.4570  15.4570  16.1568
    22.4603  23.2838

     occupation numbers 
     1.0000   1.0000   1.0000   1.0000   1.0000   1.0000   1.0000   1.0000
     1.0000   1.0000   1.0000   1.0000   1.0000   1.0000   1.0000   1.0000
     1.0000   1.0000   1.0000   1.0000   1.0000   1.0000   1.0000   0.0000
     0.0000   0.0000

          k = 0.1818 0.1818 0.1818 (  1280 PWs)   bands (ev):

     6.9012   9.0919   9.0919   9.0919   9.5835   9.5835   9.5835  10.7743
    11.2793  11.2793  12.0605  12.0605  12.0605  12.4976  12.4976  12.7990
    12.7990  12.7990  13.8828  13.8828  13.8828  16.8734  16.8734  16.8734
    22.1667  22.1667

     occupation numbers 
     1.0000   1.0000   1.0000   1.0000   1.0000   1.0000   1.0000   1.0000
     1.0000   1.0000   1.0000   1.0000   1.0000   1.0000   1.0000   1.0000
     1.0000   1.0000   1.0000   1.0000   1.0000   0.0000   0.0000   0.0000
     0.0000   0.0000

          k = 0.1818 0.1818 0.2727 (  1266 PWs)   bands (ev):

     7.2898   9.1471   9.2489   9.2489   9.7656   9.8749   9.8749  10.7092
    11.3268  11.3459  11.6015  11.6015  11.6088  12.4182  12.4879  12.5941
    12.5941  12.7200  13.8097  13.8097  13.8349  15.6005  17.5537  17.5537
    21.2270  21.2270

     occupation numbers 
     1.0000   1.0000   1.0000   1.0000   1.0000   1.0000   1.0000   1.0000
     1.0000   1.0000   1.0000   1.0000   1.0000   1.0000   1.0000   1.0000
     1.0000   1.0000   1.0000   1.0000   1.0000   1.0000   0.0000   0.0000
     0.0000   0.0000

          k = 0.1818 0.1818 0.3636 (  1265 PWs)   bands (ev):

     7.7900   9.0979   9.4842   9.4842   9.9902  10.1282  10.1282  10.5707
    11.1840  11.1840  11.2136  11.3087  11.4671  12.1738  12.4065  12.4065
    12.5243  12.9806  13.7029  13.7063  13.7063  14.4964  18.2472  18.2472
    20.4105  20.4105

     occupation numbers 
     1.0000   1.0000   1.0000   1.0000   1.0000   1.0000   1.0000   1.0000
     1.0000   1.0000   1.0000   1.0000   1.0000   1.0000   1.0000   1.0000
     1.0000   1.0000   1.0000   1.0000   1.0000   1.0000   0.0000   0.0000
     0.0000   0.0000

          k = 0.1818 0.1818 0.4545 (  1271 PWs)   bands (ev):

     8.3394   8.8240   9.7604   9.7604  10.1262  10.1262  10.2076  10.3975
    11.0215  11.0215  11.0662  11.1670  11.6485  11.8876  12.2443  12.2443
    12.9311  13.2500  13.4999  13.6002  13.6390  13.6390  18.8617  18.8617
    19.7578  19.7578

     occupation numbers 
     1.0000   1.0000   1.0000   1.0000   1.0000   1.0000   1.0000   1.0000
     1.0000   1.0000   1.0000   1.0000   1.0000   1.0000   1.0000   1.0000
     1.0000   1.0000   1.0000   1.0000   1.0000   1.0000   0.0000   0.0000
     0.0000   0.0000

          k = 0.1818 0.2727 0.2727 (  1266 PWs)   bands (ev):

     7.6155   9.2533   9.2533   9.3009  10.0711  10.0711  10.1335  10.7761
    11.2680  11.2680  11.3122  11.3346  11.4540  12.3001  12.3001  12.3042
    12.4875  12.8787  13.7524  13.7860  13.7860  16.2193  16.2193  18.1423
    20.1040  22.0235

     occupation numbers 
     1.0000   1.0000   1.0000   1.0000   1.0000   1.0000   1.0000   1.0000
     1.0000   1.0000   1.0000   1.0000   1.0000   1.0000   1.0000   1.0000
     1.0000   1.0000   1.0000   1.0000   1.0000   0.0000   0.0000   0.0000
     0.0000   0.0000

          k = 0.1818 0.2727 0.3636 (  1262 PWs)   bands (ev):

     8.0263   9.1459   9.4082   9.4115  10.2956  10.2984  10.3302  10.7721
    11.0046  11.0537  11.2557  11.3153  11.3918  11.9983  12.1116  12.1624
    12.6009  13.1958  13.6390  13.6546  13.6604  15.0556  16.8940  18.7912
    19.1390  21.0487

     occupation numbers 
     1.0000   1.0000   1.0000   1.0000   1.0000   1.0000   1.0000   1.0000
     1.0000   1.0000   1.0000   1.0000   1.0000   1.0000   1.0000   1.0000
     1.0000   1.0000   1.0000   1.0000   1.0000   1.0000   0.0000   0.0000
     0.0000   0.0000

          k = 0.1818 0.2727 0.4545 (  1269 PWs)   bands (ev):

     8.4705   8.8730   9.5337   9.5438  10.2761  10.2820  10.5806  10.7101
    10.9303  11.0848  11.1611  11.2812  11.5255  11.7317  11.9966  12.0325
    12.9503  13.3762  13.5504  13.5580  13.5845  14.1568  17.5835  18.3086
    19.4853  20.2172

     occupation numbers 
     1.0000   1.0000   1.0000   1.0000   1.0000   1.0000   1.0000   1.0000
     1.0000   1.0000   1.0000   1.0000   1.0000   1.0000   1.0000   1.0000
     1.0000   1.0000   1.0000   1.0000   1.0000   1.0000   0.0000   0.0000
     0.0000   0.0000

          k = 0.1818 0.3636 0.3636 (  1267 PWs)   bands (ev):

     8.3179   9.2198   9.2198   9.3664  10.4173  10.5410  10.5410  10.9288
    10.9989  10.9989  11.2409  11.3593  11.4433  11.8797  11.8872  11.8872
    12.6277  13.5091  13.5091  13.5122  13.5998  15.7033  15.7033  18.0494
    19.4357  21.8873

     occupation numbers 
     1.0000   1.0000   1.0000   1.0000   1.0000   1.0000   1.0000   1.0000
     1.0000   1.0000   1.0000   1.0000   1.0000   1.0000   1.0000   1.0000
     1.0000   1.0000   1.0000   1.0000   1.0000   0.7274   0.7274   0.0000
     0.0000   0.0000

          k = 0.1818 0.3636 0.4545 (  1269 PWs)   bands (ev):

     8.6352   8.9477   9.2897   9.3347  10.4641  10.4993  10.7976  10.9390
    11.0299  11.1532  11.2930  11.4476  11.4887  11.6368  11.7586  11.7968
    12.8526  13.2152  13.3917  13.3947  14.1025  14.7712  16.3908  17.1510
    20.1511  20.9570

     occupation numbers 
     1.0000   1.0000   1.0000   1.0000   1.0000   1.0000   1.0000   1.0000
     1.0000   1.0000   1.0000   1.0000   1.0000   1.0000   1.0000   1.0000
     1.0000   1.0000   1.0000   1.0000   1.0000   1.0000   0.0000   0.0000
     0.0000   0.0000

          k = 0.1818 0.4545 0.4545 (  1265 PWs)   bands (ev):

     8.8279   9.0470   9.0470   9.1738  10.6162  10.7166  10.7166  10.8735
    11.3902  11.3902  11.4160  11.4220  11.5790  11.5955  11.5955  11.5966
    12.8919  13.1280  13.1280  13.2079  14.6991  15.4346  15.4346  16.2032
    20.9337  21.8266

     occupation numbers 
     1.0000   1.0000   1.0000   1.0000   1.0000   1.0000   1.0000   1.0000
     1.0000   1.0000   1.0000   1.0000   1.0000   1.0000   1.0000   1.0000
     1.0000   1.0000   1.0000   1.0000   1.0000   1.0000   1.0000   0.0000
     0.0000   0.0000

          k = 0.2727 0.2727 0.2727 (  1265 PWs)   bands (ev):

     7.8451   9.2189   9.2189   9.2189  10.3184  10.3184  10.3184  11.0134
    11.2654  11.2654  11.2899  11.2899  11.2899  12.0032  12.0032  12.0032
    12.8099  12.8099  13.8223  13.8223  13.8223  16.7011  16.7011  16.7011
    20.7988  20.7988

     occupation numbers 
     1.0000   1.0000   1.0000   1.0000   1.0000   1.0000   1.0000   1.0000
     1.0000   1.0000   1.0000   1.0000   1.0000   1.0000   1.0000   1.0000
     1.0000   1.0000   1.0000   1.0000   1.0000   0.0000   0.0000   0.0000
     0.0000   0.0000

          k = 0.2727 0.2727 0.3636 (  1268 PWs)   bands (ev):

     8.1330   9.0359   9.2252   9.2252  10.4313  10.4313  10.5720  11.1362
    11.1872  11.2541  11.2676  11.3999  11.3999  11.7271  11.8370  11.8370
    12.9234  13.1338  13.7373  13.7373  13.7906  15.3853  17.2744  17.2744
    19.7564  19.7564

     occupation numbers 
     1.0000   1.0000   1.0000   1.0000   1.0000   1.0000   1.0000   1.0000
     1.0000   1.0000   1.0000   1.0000   1.0000   1.0000   1.0000   1.0000
     1.0000   1.0000   1.0000   1.0000   1.0000   1.0000   0.0000   0.0000
     0.0000   0.0000

          k = 0.2727 0.2727 0.4545 (  1266 PWs)   bands (ev):

     8.4513   8.7662   9.2434   9.2434  10.4249  10.4249  10.8441  11.0478
    11.1716  11.2300  11.3474  11.5033  11.5752  11.5752  11.7397  11.7397
    13.4149  13.4253  13.6369  13.6369  13.6531  14.2681  17.8412  17.8412
    18.9653  18.9653

     occupation numbers 
     1.0000   1.0000   1.0000   1.0000   1.0000   1.0000   1.0000   1.0000
     1.0000   1.0000   1.0000   1.0000   1.0000   1.0000   1.0000   1.0000
     1.0000   1.0000   1.0000   1.0000   1.0000   1.0000   0.0000   0.0000
     0.0000   0.0000

          k = 0.2727 0.3636 0.3636 (  1266 PWs)   bands (ev):

     8.2861   8.9785   8.9785   9.0913  10.5308  10.6306  10.6306  11.1397
    11.1915  11.4747  11.4747  11.5993  11.6265  11.6352  11.6352  11.7454
    12.9935  13.4367  13.6933  13.7282  13.7282  15.8907  15.8907  17.5563
    18.8721  20.5789

     occupation numbers 
     1.0000   1.0000   1.0000   1.0000   1.0000   1.0000   1.0000   1.0000
     1.0000   1.0000   1.0000   1.0000   1.0000   1.0000   1.0000   1.0000
     1.0000   1.0000   1.0000   1.0000   1.0000   0.0000   0.0000   0.0000
     0.0000   0.0000

          k = 0.2727 0.3636 0.4545 (  1269 PWs)   bands (ev):

     8.4844   8.7208   8.9697   9.0069  10.5873  10.6165  10.8406  11.0181
    11.2286  11.3480  11.4633  11.4811  11.7114  11.7950  11.8973  11.9598
    13.2535  13.5736  13.6039  13.6139  13.9264  14.7373  16.5017  17.1696
    18.9721  19.6592

     occupation numbers 
     1.0000   1.0000   1.0000   1.0000   1.0000   1.0000   1.0000   1.0000
     1.0000   1.0000   1.0000   1.0000   1.0000   1.0000   1.0000   1.0000
     1.0000   1.0000   1.0000   1.0000   1.0000   1.0000   0.0000   0.0000
     0.0000   0.0000

          k = 0.2727 0.4545 0.4545 (  1274 PWs)   bands (ev):

     8.5813   8.7446   8.7446   8.8399  10.7248  10.8062  10.8062  10.9521
    11.1941  11.2838  11.2838  11.3242  12.1324  12.1324  12.1704  12.2046
    13.2344  13.4469  13.4469  13.4834  14.5371  15.3774  15.3774  16.1858
    19.6466  20.5077

     occupation numbers 
     1.0000   1.0000   1.0000   1.0000   1.0000   1.0000   1.0000   1.0000
     1.0000   1.0000   1.0000   1.0000   1.0000   1.0000   1.0000   1.0000
     1.0000   1.0000   1.0000   1.0000   1.0000   1.0000   1.0000   0.0000
     0.0000   0.0000

          k = 0.3636 0.3636 0.3636 (  1277 PWs)   bands (ev):

     8.3124   8.8147   8.8147   8.8147  10.7010  10.7010  10.7010  11.1066
    11.1066  11.3636  11.3636  11.3636  12.0482  12.0482  12.0482  12.3048
    13.3219  13.3219  13.7759  13.7759  13.7759  16.1562  16.1562  16.1562
    19.5257  19.5257

     occupation numbers 
     1.0000   1.0000   1.0000   1.0000   1.0000   1.0000   1.0000   1.0000
     1.0000   1.0000   1.0000   1.0000   1.0000   1.0000   1.0000   1.0000
     1.0000   1.0000   1.0000   1.0000   1.0000   0.0000   0.0000   0.0000
     0.0000   0.0000

          k = 0.3636 0.3636 0.4545 (  1277 PWs)   bands (ev):

     8.4101   8.5805   8.7320   8.7320  10.7407  10.7407  10.8742  11.0149
    11.1082  11.1958  11.2601  11.2601  12.3400  12.4079  12.4079  12.5540
    13.5799  13.7109  13.7109  13.7376  13.7833  14.8562  16.3927  16.3927
    18.8851  18.8851

     occupation numbers 
     1.0000   1.0000   1.0000   1.0000   1.0000   1.0000   1.0000   1.0000
     1.0000   1.0000   1.0000   1.0000   1.0000   1.0000   1.0000   1.0000
     1.0000   1.0000   1.0000   1.0000   1.0000   1.0000   0.0000   0.0000
     0.0000   0.0000

          k = 0.3636 0.4545 0.4545 (  1285 PWs)   bands (ev):

     8.4260   8.5347   8.5347   8.5856  10.8415  10.8851  10.8851  10.9908
    11.0482  11.1109  11.1109  11.1308  12.8070  12.8131  12.8131  13.0421
    13.5137  13.6749  13.6749  13.6753  14.3010  15.2613  15.2613  15.8719
    18.9035  19.4813

     occupation numbers 
     1.0000   1.0000   1.0000   1.0000   1.0000   1.0000   1.0000   1.0000
     1.0000   1.0000   1.0000   1.0000   1.0000   1.0000   1.0000   1.0000
     1.0000   1.0000   1.0000   1.0000   1.0000   1.0000   1.0000   0.0000
     0.0000   0.0000

          k = 0.4545 0.4545 0.4545 (  1283 PWs)   bands (ev):

     8.3739   8.4278   8.4278   8.4278  10.9359  10.9359  10.9359  10.9877
    10.9877  11.0159  11.0159  11.0159  13.3515  13.3515  13.3515  13.6938
    13.6938  13.7500  13.7500  13.7500  14.2643  15.1161  15.1161  15.1161
    18.9051  18.9051

     occupation numbers 
     1.0000   1.0000   1.0000   1.0000   1.0000   1.0000   1.0000   1.0000
     1.0000   1.0000   1.0000   1.0000   1.0000   1.0000   1.0000   1.0000
     1.0000   1.0000   1.0000   1.0000   1.0000   1.0000   1.0000   1.0000
     0.0000   0.0000

     the Fermi energy is    15.7208 ev

!    total energy              =    -459.94508541 Ry
     estimated scf accuracy    <          7.6E-09 Ry
     smearing contrib. (-TS)   =      -0.00005177 Ry
     internal energy E=F+TS    =    -459.94503364 Ry

     The total energy is F=E-TS. E is the sum of the following terms:
     one-electron contribution =      43.50302793 Ry
     hartree contribution      =      33.62006678 Ry
     xc contribution           =    -249.13016721 Ry
     ewald contribution        =    -287.93796113 Ry

     convergence has been achieved in   9 iterations

     Forces acting on atoms (cartesian axes, Ry/au):

     atom    1 type  1   force =     0.00000000    0.00000000    0.00000000
     atom    2 type  1   force =     0.00000000    0.00000000    0.00000000
     atom    3 type  1   force =     0.00000000    0.00000000    0.00000000
     atom    4 type  1   force =     0.00000000    0.00000000    0.00000000
     The non-local contrib.  to forces
     atom    1 type  1   force =     0.00000000    0.00000000    0.00000000
     atom    2 type  1   force =     0.00000000    0.00000000    0.00000000
     atom    3 type  1   force =     0.00000000    0.00000000    0.00000000
     atom    4 type  1   force =     0.00000000    0.00000000    0.00000000
     The ionic contribution  to forces
     atom    1 type  1   force =    -0.00000000   -0.00000000   -0.00000000
     atom    2 type  1   force =    -0.00000000    0.00000000    0.00000000
     atom    3 type  1   force =     0.00000000   -0.00000000    0.00000000
     atom    4 type  1   force =     0.00000000    0.00000000   -0.00000000
     The local contribution  to forces
     atom    1 type  1   force =     0.00000000    0.00000000    0.00000000
     atom    2 type  1   force =     0.00000000    0.00000000    0.00000000
     atom    3 type  1   force =     0.00000000    0.00000000    0.00000000
     atom    4 type  1   force =     0.00000000    0.00000000    0.00000000
     The core correction contribution to forces
     atom    1 type  1   force =    -0.00000000   -0.00000000   -0.00000000
     atom    2 type  1   force =    -0.00000000    0.00000000    0.00000000
     atom    3 type  1   force =     0.00000000   -0.00000000    0.00000000
     atom    4 type  1   force =     0.00000000    0.00000000   -0.00000000
     The Hubbard contrib.    to forces
     atom    1 type  1   force =     0.00000000    0.00000000    0.00000000
     atom    2 type  1   force =     0.00000000    0.00000000    0.00000000
     atom    3 type  1   force =     0.00000000    0.00000000    0.00000000
     atom    4 type  1   force =     0.00000000    0.00000000    0.00000000
     The SCF correction term to forces
     atom    1 type  1   force =    -0.00000000   -0.00000000   -0.00000000
     atom    2 type  1   force =    -0.00000000   -0.00000000    0.00000000
     atom    3 type  1   force =     0.00000000   -0.00000000    0.00000000
     atom    4 type  1   force =     0.00000000   -0.00000000   -0.00000000

     Total force =     0.000000     Total SCF correction =     0.000000


     Computing stress (Cartesian axis) and pressure

          total   stress  (Ry/bohr**3)                   (kbar)     P=       92.47
   0.00062861   0.00000000   0.00000000           92.47        0.00        0.00
   0.00000000   0.00062861   0.00000000            0.00       92.47        0.00
   0.00000000   0.00000000   0.00062861            0.00        0.00       92.47

     kinetic stress (kbar)  21586.24      0.00      0.00
                                0.00  21586.24      0.00
                                0.00      0.00  21586.24

     local   stress (kbar)  27861.88     -0.00     -0.00
                               -0.00  27861.88     -0.00
                               -0.00     -0.00  27861.88

     nonloc. stress (kbar) -13494.34      0.00      0.00
                                0.00 -13494.34      0.00
                                0.00      0.00 -13494.34

     hartree stress (kbar)   3601.53      0.00      0.00
                                0.00   3601.53     -0.00
                                0.00     -0.00   3601.53

     exc-cor stress (kbar)  55722.20     -0.00      0.00
                               -0.00  55722.20      0.00
                                0.00      0.00  55722.20

     corecor stress (kbar) -64339.87      0.00     -0.00
                                0.00 -64339.87      0.00
                               -0.00      0.00 -64339.87

     ewald   stress (kbar) -30845.17     -0.00     -0.00
                               -0.00 -30845.17      0.00
                               -0.00      0.00 -30845.17

     hubbard stress (kbar)      0.00      0.00      0.00
                                0.00      0.00      0.00
                                0.00      0.00      0.00

     DFT-D   stress (kbar)      0.00      0.00      0.00
                                0.00      0.00      0.00
                                0.00      0.00      0.00

     XDM     stress (kbar)      0.00      0.00      0.00
                                0.00      0.00      0.00
                                0.00      0.00      0.00

     dft-nl  stress (kbar)      0.00      0.00      0.00
                                0.00      0.00      0.00
                                0.00      0.00      0.00

     TS-vdW  stress (kbar)      0.00      0.00      0.00
                                0.00      0.00      0.00
                                0.00      0.00      0.00



     Writing output data file ./au.save/

     init_run     :      0.30s CPU      0.34s WALL (       1 calls)
     electrons    :      7.41s CPU      7.83s WALL (       1 calls)
     forces       :      0.11s CPU      0.11s WALL (       1 calls)
     stress       :      0.27s CPU      0.27s WALL (       1 calls)

     Called by init_run:
     wfcinit      :      0.23s CPU      0.24s WALL (       1 calls)
     wfcinit:atom :      0.00s CPU      0.00s WALL (      56 calls)
     wfcinit:wfcr :      0.22s CPU      0.23s WALL (      56 calls)
     potinit      :      0.01s CPU      0.01s WALL (       1 calls)
     hinit0       :      0.03s CPU      0.04s WALL (       1 calls)

     Called by electrons:
     c_bands      :      6.41s CPU      6.64s WALL (      10 calls)
     sum_band     :      0.80s CPU      0.84s WALL (      10 calls)
     v_of_rho     :      0.04s CPU      0.04s WALL (      10 calls)
     v_h          :      0.00s CPU      0.00s WALL (      10 calls)
     v_xc         :      0.04s CPU      0.04s WALL (      12 calls)
     newd         :      0.18s CPU      0.18s WALL (      10 calls)
     mix_rho      :      0.00s CPU      0.01s WALL (      10 calls)

     Called by c_bands:
     init_us_2    :      0.05s CPU      0.05s WALL (    1288 calls)
     cegterg      :      6.24s CPU      6.47s WALL (     560 calls)

     Called by sum_band:
     sum_band:wei :      0.00s CPU      0.00s WALL (      10 calls)
     sum_band:loo :      0.51s CPU      0.54s WALL (      10 calls)
     sum_band:buf :      0.00s CPU      0.00s WALL (     560 calls)
     sum_band:ini :      0.02s CPU      0.02s WALL (     560 calls)
     sum_band:cal :      0.08s CPU      0.09s WALL (     560 calls)
     sum_band:bec :      0.01s CPU      0.01s WALL (     560 calls)
     addusdens    :      0.13s CPU      0.14s WALL (      10 calls)
     addusd:skk   :      0.00s CPU      0.00s WALL (      10 calls)
     addusd:dgemm :      0.05s CPU      0.05s WALL (      10 calls)
     addusd:qvan2 :      0.07s CPU      0.07s WALL (      10 calls)

     Called by *egterg:
     cdiaghg      :      2.46s CPU      2.51s WALL (    2013 calls)
     cegterg:over :      0.48s CPU      0.49s WALL (    1509 calls)
     cegterg:upda :      0.17s CPU      0.17s WALL (    1509 calls)
     cegterg:last :      0.36s CPU      0.37s WALL (    1270 calls)
     cdiaghg:chol :      0.13s CPU      0.14s WALL (    2013 calls)
     cdiaghg:inve :      0.05s CPU      0.05s WALL (    2013 calls)
     cdiaghg:para :      0.22s CPU      0.22s WALL (    4026 calls)
     h_psi        :      2.69s CPU      2.83s WALL (    2125 calls)
     s_psi        :      0.14s CPU      0.15s WALL (    2125 calls)
     g_psi        :      0.01s CPU      0.01s WALL (    1509 calls)

     Called by h_psi:
     h_psi:calbec :      0.26s CPU      0.27s WALL (    2125 calls)
     vloc_psi     :      2.27s CPU      2.39s WALL (    2125 calls)
     add_vuspsi   :      0.15s CPU      0.16s WALL (    2125 calls)

     General routines
     calbec       :      0.38s CPU      0.40s WALL (    2965 calls)
     fft          :      0.03s CPU      0.04s WALL (     154 calls)
     ffts         :      0.00s CPU      0.00s WALL (      20 calls)
     fftw         :      2.54s CPU      2.67s WALL (   98318 calls)
     interpolate  :      0.00s CPU      0.00s WALL (      10 calls)

     Parallel routines
     fft_scatt_xy :      0.16s CPU      0.17s WALL (   98492 calls)
     fft_scatt_yz :      1.37s CPU      1.45s WALL (   98492 calls)

     PWSCF        :      8.32s CPU      8.94s WALL


   This run was terminated on:  22:28:36  24Nov2021            

=------------------------------------------------------------------------------=
   JOB DONE.
=------------------------------------------------------------------------------=
