
     Program PWSCF v.6.7MaX starts on 24Nov2021 at 22:28:23 

     This program is part of the open-source Quantum ESPRESSO suite
     for quantum simulation of materials; please cite
         "P. Giannozzi et al., J. Phys.:Condens. Matter 21 395502 (2009);
         "P. Giannozzi et al., J. Phys.:Condens. Matter 29 465901 (2017);
          URL http://www.quantum-espresso.org", 
     in publications or presentations arising from this work. More details at
     http://www.quantum-espresso.org/quote

     Parallel version (MPI), running on    16 processors

     MPI processes distributed on     1 nodes
     R & G space division:  proc/nbgrp/npool/nimage =      16
     Reading input from au_bulk.qe.12_12_12.in

     Current dimensions of program PWSCF are:
     Max number of different atomic species (ntypx) = 10
     Max number of k-points (npk) =  40000
     Max angular momentum in pseudopotentials (lmaxx) =  3

     Subspace diagonalization in iterative solution of the eigenvalue problem:
     one sub-group per band group will be used
     scalapack distributed-memory algorithm (size of sub-group:  4*  4 procs)

     Found symmetry operation: I + (  0.0000 -0.5000 -0.5000)
     This is a supercell, fractional translations are disabled

     Parallelization info
     --------------------
     sticks:   dense  smooth     PW     G-vecs:    dense   smooth      PW
     Min          89      35     11                 2515      633     113
     Max          90      37     12                 2518      635     118
     Sum        1425     569    177                40243    10131    1839



     bravais-lattice index     =            1
     lattice parameter (alat)  =       7.7068  a.u.
     unit-cell volume          =     457.7392 (a.u.)^3
     number of atoms/cell      =            4
     number of atomic types    =            1
     number of electrons       =        44.00
     number of Kohn-Sham states=           26
     kinetic-energy cutoff     =      30.0000  Ry
     charge density cutoff     =     300.0000  Ry
     scf convergence threshold =      1.0E-08
     mixing beta               =       0.3000
     number of iterations used =            8  plain     mixing
     Exchange-correlation= SLA  PW   PBE  PBE
                           (   1   4   3   4   0   0   0)

     celldm(1)=   7.706776  celldm(2)=   0.000000  celldm(3)=   0.000000
     celldm(4)=   0.000000  celldm(5)=   0.000000  celldm(6)=   0.000000

     crystal axes: (cart. coord. in units of alat)
               a(1) = (   1.000000   0.000000   0.000000 )  
               a(2) = (   0.000000   1.000000   0.000000 )  
               a(3) = (   0.000000   0.000000   1.000000 )  

     reciprocal axes: (cart. coord. in units 2 pi/alat)
               b(1) = (  1.000000  0.000000  0.000000 )  
               b(2) = (  0.000000  1.000000  0.000000 )  
               b(3) = (  0.000000  0.000000  1.000000 )  


     PseudoPot. # 1 for Au read from file:
     /expanse/lustre/projects/csd622/tpascal/nano110/qe/pseudo/au_pbe_v1.uspp.F.UPF
     MD5 check sum: 9d7f43293ad2c663164586bc4b293ffc
     Pseudo is Ultrasoft + core correction, Zval = 11.0
     Generated by new atomic code, or converted to UPF format
     Using radial grid of  985 points,  7 beta functions with: 
                l(1) =   0
                l(2) =   0
                l(3) =   1
                l(4) =   1
                l(5) =   2
                l(6) =   2
                l(7) =   3
     Q(r) pseudized with  6 coefficients,  rinner =    1.900   1.900   1.900
                                                       1.900   1.900   1.900
                                                       1.900

     atomic species   valence    mass     pseudopotential
        Au            11.00   196.96655     Au( 1.00)

     48 Sym. Ops., with inversion, found


                                    s                        frac. trans.

      isym =  1     identity                                     

 cryst.   s( 1) = (     1          0          0      )
                  (     0          1          0      )
                  (     0          0          1      )

 cart.    s( 1) = (  1.0000000  0.0000000  0.0000000 )
                  (  0.0000000  1.0000000  0.0000000 )
                  (  0.0000000  0.0000000  1.0000000 )


      isym =  2     180 deg rotation - cart. axis [0,0,1]        

 cryst.   s( 2) = (    -1          0          0      )
                  (     0         -1          0      )
                  (     0          0          1      )

 cart.    s( 2) = ( -1.0000000  0.0000000  0.0000000 )
                  (  0.0000000 -1.0000000  0.0000000 )
                  (  0.0000000  0.0000000  1.0000000 )


      isym =  3     180 deg rotation - cart. axis [0,1,0]        

 cryst.   s( 3) = (    -1          0          0      )
                  (     0          1          0      )
                  (     0          0         -1      )

 cart.    s( 3) = ( -1.0000000  0.0000000  0.0000000 )
                  (  0.0000000  1.0000000  0.0000000 )
                  (  0.0000000  0.0000000 -1.0000000 )


      isym =  4     180 deg rotation - cart. axis [1,0,0]        

 cryst.   s( 4) = (     1          0          0      )
                  (     0         -1          0      )
                  (     0          0         -1      )

 cart.    s( 4) = (  1.0000000  0.0000000  0.0000000 )
                  (  0.0000000 -1.0000000  0.0000000 )
                  (  0.0000000  0.0000000 -1.0000000 )


      isym =  5     180 deg rotation - cart. axis [1,1,0]        

 cryst.   s( 5) = (     0          1          0      )
                  (     1          0          0      )
                  (     0          0         -1      )

 cart.    s( 5) = (  0.0000000  1.0000000  0.0000000 )
                  (  1.0000000  0.0000000  0.0000000 )
                  (  0.0000000  0.0000000 -1.0000000 )


      isym =  6     180 deg rotation - cart. axis [1,-1,0]       

 cryst.   s( 6) = (     0         -1          0      )
                  (    -1          0          0      )
                  (     0          0         -1      )

 cart.    s( 6) = (  0.0000000 -1.0000000  0.0000000 )
                  ( -1.0000000  0.0000000  0.0000000 )
                  (  0.0000000  0.0000000 -1.0000000 )


      isym =  7      90 deg rotation - cart. axis [0,0,-1]       

 cryst.   s( 7) = (     0         -1          0      )
                  (     1          0          0      )
                  (     0          0          1      )

 cart.    s( 7) = (  0.0000000  1.0000000  0.0000000 )
                  ( -1.0000000  0.0000000  0.0000000 )
                  (  0.0000000  0.0000000  1.0000000 )


      isym =  8      90 deg rotation - cart. axis [0,0,1]        

 cryst.   s( 8) = (     0          1          0      )
                  (    -1          0          0      )
                  (     0          0          1      )

 cart.    s( 8) = (  0.0000000 -1.0000000  0.0000000 )
                  (  1.0000000  0.0000000  0.0000000 )
                  (  0.0000000  0.0000000  1.0000000 )


      isym =  9     180 deg rotation - cart. axis [1,0,1]        

 cryst.   s( 9) = (     0          0          1      )
                  (     0         -1          0      )
                  (     1          0          0      )

 cart.    s( 9) = (  0.0000000  0.0000000  1.0000000 )
                  (  0.0000000 -1.0000000  0.0000000 )
                  (  1.0000000  0.0000000  0.0000000 )


      isym = 10     180 deg rotation - cart. axis [-1,0,1]       

 cryst.   s(10) = (     0          0         -1      )
                  (     0         -1          0      )
                  (    -1          0          0      )

 cart.    s(10) = (  0.0000000  0.0000000 -1.0000000 )
                  (  0.0000000 -1.0000000  0.0000000 )
                  ( -1.0000000  0.0000000  0.0000000 )


      isym = 11      90 deg rotation - cart. axis [0,1,0]        

 cryst.   s(11) = (     0          0         -1      )
                  (     0          1          0      )
                  (     1          0          0      )

 cart.    s(11) = (  0.0000000  0.0000000  1.0000000 )
                  (  0.0000000  1.0000000  0.0000000 )
                  ( -1.0000000  0.0000000  0.0000000 )


      isym = 12      90 deg rotation - cart. axis [0,-1,0]       

 cryst.   s(12) = (     0          0          1      )
                  (     0          1          0      )
                  (    -1          0          0      )

 cart.    s(12) = (  0.0000000  0.0000000 -1.0000000 )
                  (  0.0000000  1.0000000  0.0000000 )
                  (  1.0000000  0.0000000  0.0000000 )


      isym = 13     180 deg rotation - cart. axis [0,1,1]        

 cryst.   s(13) = (    -1          0          0      )
                  (     0          0          1      )
                  (     0          1          0      )

 cart.    s(13) = ( -1.0000000  0.0000000  0.0000000 )
                  (  0.0000000  0.0000000  1.0000000 )
                  (  0.0000000  1.0000000  0.0000000 )


      isym = 14     180 deg rotation - cart. axis [0,1,-1]       

 cryst.   s(14) = (    -1          0          0      )
                  (     0          0         -1      )
                  (     0         -1          0      )

 cart.    s(14) = ( -1.0000000  0.0000000  0.0000000 )
                  (  0.0000000  0.0000000 -1.0000000 )
                  (  0.0000000 -1.0000000  0.0000000 )


      isym = 15      90 deg rotation - cart. axis [-1,0,0]       

 cryst.   s(15) = (     1          0          0      )
                  (     0          0         -1      )
                  (     0          1          0      )

 cart.    s(15) = (  1.0000000  0.0000000  0.0000000 )
                  (  0.0000000  0.0000000  1.0000000 )
                  (  0.0000000 -1.0000000  0.0000000 )


      isym = 16      90 deg rotation - cart. axis [1,0,0]        

 cryst.   s(16) = (     1          0          0      )
                  (     0          0          1      )
                  (     0         -1          0      )

 cart.    s(16) = (  1.0000000  0.0000000  0.0000000 )
                  (  0.0000000  0.0000000 -1.0000000 )
                  (  0.0000000  1.0000000  0.0000000 )


      isym = 17     120 deg rotation - cart. axis [-1,-1,-1]     

 cryst.   s(17) = (     0          0          1      )
                  (     1          0          0      )
                  (     0          1          0      )

 cart.    s(17) = (  0.0000000  1.0000000  0.0000000 )
                  (  0.0000000  0.0000000  1.0000000 )
                  (  1.0000000  0.0000000  0.0000000 )


      isym = 18     120 deg rotation - cart. axis [-1,1,1]       

 cryst.   s(18) = (     0          0         -1      )
                  (    -1          0          0      )
                  (     0          1          0      )

 cart.    s(18) = (  0.0000000 -1.0000000  0.0000000 )
                  (  0.0000000  0.0000000  1.0000000 )
                  ( -1.0000000  0.0000000  0.0000000 )


      isym = 19     120 deg rotation - cart. axis [1,1,-1]       

 cryst.   s(19) = (     0          0         -1      )
                  (     1          0          0      )
                  (     0         -1          0      )

 cart.    s(19) = (  0.0000000  1.0000000  0.0000000 )
                  (  0.0000000  0.0000000 -1.0000000 )
                  ( -1.0000000  0.0000000  0.0000000 )


      isym = 20     120 deg rotation - cart. axis [1,-1,1]       

 cryst.   s(20) = (     0          0          1      )
                  (    -1          0          0      )
                  (     0         -1          0      )

 cart.    s(20) = (  0.0000000 -1.0000000  0.0000000 )
                  (  0.0000000  0.0000000 -1.0000000 )
                  (  1.0000000  0.0000000  0.0000000 )


      isym = 21     120 deg rotation - cart. axis [1,1,1]        

 cryst.   s(21) = (     0          1          0      )
                  (     0          0          1      )
                  (     1          0          0      )

 cart.    s(21) = (  0.0000000  0.0000000  1.0000000 )
                  (  1.0000000  0.0000000  0.0000000 )
                  (  0.0000000  1.0000000  0.0000000 )


      isym = 22     120 deg rotation - cart. axis [-1,1,-1]      

 cryst.   s(22) = (     0         -1          0      )
                  (     0          0         -1      )
                  (     1          0          0      )

 cart.    s(22) = (  0.0000000  0.0000000  1.0000000 )
                  ( -1.0000000  0.0000000  0.0000000 )
                  (  0.0000000 -1.0000000  0.0000000 )


      isym = 23     120 deg rotation - cart. axis [1,-1,-1]      

 cryst.   s(23) = (     0         -1          0      )
                  (     0          0          1      )
                  (    -1          0          0      )

 cart.    s(23) = (  0.0000000  0.0000000 -1.0000000 )
                  ( -1.0000000  0.0000000  0.0000000 )
                  (  0.0000000  1.0000000  0.0000000 )


      isym = 24     120 deg rotation - cart. axis [-1,-1,1]      

 cryst.   s(24) = (     0          1          0      )
                  (     0          0         -1      )
                  (    -1          0          0      )

 cart.    s(24) = (  0.0000000  0.0000000 -1.0000000 )
                  (  1.0000000  0.0000000  0.0000000 )
                  (  0.0000000 -1.0000000  0.0000000 )


      isym = 25     inversion                                    

 cryst.   s(25) = (    -1          0          0      )
                  (     0         -1          0      )
                  (     0          0         -1      )

 cart.    s(25) = ( -1.0000000  0.0000000  0.0000000 )
                  (  0.0000000 -1.0000000  0.0000000 )
                  (  0.0000000  0.0000000 -1.0000000 )


      isym = 26     inv. 180 deg rotation - cart. axis [0,0,1]   

 cryst.   s(26) = (     1          0          0      )
                  (     0          1          0      )
                  (     0          0         -1      )

 cart.    s(26) = (  1.0000000  0.0000000  0.0000000 )
                  (  0.0000000  1.0000000  0.0000000 )
                  (  0.0000000  0.0000000 -1.0000000 )


      isym = 27     inv. 180 deg rotation - cart. axis [0,1,0]   

 cryst.   s(27) = (     1          0          0      )
                  (     0         -1          0      )
                  (     0          0          1      )

 cart.    s(27) = (  1.0000000  0.0000000  0.0000000 )
                  (  0.0000000 -1.0000000  0.0000000 )
                  (  0.0000000  0.0000000  1.0000000 )


      isym = 28     inv. 180 deg rotation - cart. axis [1,0,0]   

 cryst.   s(28) = (    -1          0          0      )
                  (     0          1          0      )
                  (     0          0          1      )

 cart.    s(28) = ( -1.0000000  0.0000000  0.0000000 )
                  (  0.0000000  1.0000000  0.0000000 )
                  (  0.0000000  0.0000000  1.0000000 )


      isym = 29     inv. 180 deg rotation - cart. axis [1,1,0]   

 cryst.   s(29) = (     0         -1          0      )
                  (    -1          0          0      )
                  (     0          0          1      )

 cart.    s(29) = (  0.0000000 -1.0000000  0.0000000 )
                  ( -1.0000000  0.0000000  0.0000000 )
                  (  0.0000000  0.0000000  1.0000000 )


      isym = 30     inv. 180 deg rotation - cart. axis [1,-1,0]  

 cryst.   s(30) = (     0          1          0      )
                  (     1          0          0      )
                  (     0          0          1      )

 cart.    s(30) = (  0.0000000  1.0000000  0.0000000 )
                  (  1.0000000  0.0000000  0.0000000 )
                  (  0.0000000  0.0000000  1.0000000 )


      isym = 31     inv.  90 deg rotation - cart. axis [0,0,-1]  

 cryst.   s(31) = (     0          1          0      )
                  (    -1          0          0      )
                  (     0          0         -1      )

 cart.    s(31) = (  0.0000000 -1.0000000  0.0000000 )
                  (  1.0000000  0.0000000  0.0000000 )
                  (  0.0000000  0.0000000 -1.0000000 )


      isym = 32     inv.  90 deg rotation - cart. axis [0,0,1]   

 cryst.   s(32) = (     0         -1          0      )
                  (     1          0          0      )
                  (     0          0         -1      )

 cart.    s(32) = (  0.0000000  1.0000000  0.0000000 )
                  ( -1.0000000  0.0000000  0.0000000 )
                  (  0.0000000  0.0000000 -1.0000000 )


      isym = 33     inv. 180 deg rotation - cart. axis [1,0,1]   

 cryst.   s(33) = (     0          0         -1      )
                  (     0          1          0      )
                  (    -1          0          0      )

 cart.    s(33) = (  0.0000000  0.0000000 -1.0000000 )
                  (  0.0000000  1.0000000  0.0000000 )
                  ( -1.0000000  0.0000000  0.0000000 )


      isym = 34     inv. 180 deg rotation - cart. axis [-1,0,1]  

 cryst.   s(34) = (     0          0          1      )
                  (     0          1          0      )
                  (     1          0          0      )

 cart.    s(34) = (  0.0000000  0.0000000  1.0000000 )
                  (  0.0000000  1.0000000  0.0000000 )
                  (  1.0000000  0.0000000  0.0000000 )


      isym = 35     inv.  90 deg rotation - cart. axis [0,1,0]   

 cryst.   s(35) = (     0          0          1      )
                  (     0         -1          0      )
                  (    -1          0          0      )

 cart.    s(35) = (  0.0000000  0.0000000 -1.0000000 )
                  (  0.0000000 -1.0000000  0.0000000 )
                  (  1.0000000  0.0000000  0.0000000 )


      isym = 36     inv.  90 deg rotation - cart. axis [0,-1,0]  

 cryst.   s(36) = (     0          0         -1      )
                  (     0         -1          0      )
                  (     1          0          0      )

 cart.    s(36) = (  0.0000000  0.0000000  1.0000000 )
                  (  0.0000000 -1.0000000  0.0000000 )
                  ( -1.0000000  0.0000000  0.0000000 )


      isym = 37     inv. 180 deg rotation - cart. axis [0,1,1]   

 cryst.   s(37) = (     1          0          0      )
                  (     0          0         -1      )
                  (     0         -1          0      )

 cart.    s(37) = (  1.0000000  0.0000000  0.0000000 )
                  (  0.0000000  0.0000000 -1.0000000 )
                  (  0.0000000 -1.0000000  0.0000000 )


      isym = 38     inv. 180 deg rotation - cart. axis [0,1,-1]  

 cryst.   s(38) = (     1          0          0      )
                  (     0          0          1      )
                  (     0          1          0      )

 cart.    s(38) = (  1.0000000  0.0000000  0.0000000 )
                  (  0.0000000  0.0000000  1.0000000 )
                  (  0.0000000  1.0000000  0.0000000 )


      isym = 39     inv.  90 deg rotation - cart. axis [-1,0,0]  

 cryst.   s(39) = (    -1          0          0      )
                  (     0          0          1      )
                  (     0         -1          0      )

 cart.    s(39) = ( -1.0000000  0.0000000  0.0000000 )
                  (  0.0000000  0.0000000 -1.0000000 )
                  (  0.0000000  1.0000000  0.0000000 )


      isym = 40     inv.  90 deg rotation - cart. axis [1,0,0]   

 cryst.   s(40) = (    -1          0          0      )
                  (     0          0         -1      )
                  (     0          1          0      )

 cart.    s(40) = ( -1.0000000  0.0000000  0.0000000 )
                  (  0.0000000  0.0000000  1.0000000 )
                  (  0.0000000 -1.0000000  0.0000000 )


      isym = 41     inv. 120 deg rotation - cart. axis [-1,-1,-1]

 cryst.   s(41) = (     0          0         -1      )
                  (    -1          0          0      )
                  (     0         -1          0      )

 cart.    s(41) = (  0.0000000 -1.0000000  0.0000000 )
                  (  0.0000000  0.0000000 -1.0000000 )
                  ( -1.0000000  0.0000000  0.0000000 )


      isym = 42     inv. 120 deg rotation - cart. axis [-1,1,1]  

 cryst.   s(42) = (     0          0          1      )
                  (     1          0          0      )
                  (     0         -1          0      )

 cart.    s(42) = (  0.0000000  1.0000000  0.0000000 )
                  (  0.0000000  0.0000000 -1.0000000 )
                  (  1.0000000  0.0000000  0.0000000 )


      isym = 43     inv. 120 deg rotation - cart. axis [1,1,-1]  

 cryst.   s(43) = (     0          0          1      )
                  (    -1          0          0      )
                  (     0          1          0      )

 cart.    s(43) = (  0.0000000 -1.0000000  0.0000000 )
                  (  0.0000000  0.0000000  1.0000000 )
                  (  1.0000000  0.0000000  0.0000000 )


      isym = 44     inv. 120 deg rotation - cart. axis [1,-1,1]  

 cryst.   s(44) = (     0          0         -1      )
                  (     1          0          0      )
                  (     0          1          0      )

 cart.    s(44) = (  0.0000000  1.0000000  0.0000000 )
                  (  0.0000000  0.0000000  1.0000000 )
                  ( -1.0000000  0.0000000  0.0000000 )


      isym = 45     inv. 120 deg rotation - cart. axis [1,1,1]   

 cryst.   s(45) = (     0         -1          0      )
                  (     0          0         -1      )
                  (    -1          0          0      )

 cart.    s(45) = (  0.0000000  0.0000000 -1.0000000 )
                  ( -1.0000000  0.0000000  0.0000000 )
                  (  0.0000000 -1.0000000  0.0000000 )


      isym = 46     inv. 120 deg rotation - cart. axis [-1,1,-1] 

 cryst.   s(46) = (     0          1          0      )
                  (     0          0          1      )
                  (    -1          0          0      )

 cart.    s(46) = (  0.0000000  0.0000000 -1.0000000 )
                  (  1.0000000  0.0000000  0.0000000 )
                  (  0.0000000  1.0000000  0.0000000 )


      isym = 47     inv. 120 deg rotation - cart. axis [1,-1,-1] 

 cryst.   s(47) = (     0          1          0      )
                  (     0          0         -1      )
                  (     1          0          0      )

 cart.    s(47) = (  0.0000000  0.0000000  1.0000000 )
                  (  1.0000000  0.0000000  0.0000000 )
                  (  0.0000000 -1.0000000  0.0000000 )


      isym = 48     inv. 120 deg rotation - cart. axis [-1,-1,1] 

 cryst.   s(48) = (     0         -1          0      )
                  (     0          0          1      )
                  (     1          0          0      )

 cart.    s(48) = (  0.0000000  0.0000000  1.0000000 )
                  ( -1.0000000  0.0000000  0.0000000 )
                  (  0.0000000  1.0000000  0.0000000 )


     point group O_h (m-3m) 
     there are 10 classes
     the character table:

       E     8C3   3C2   6C4   6C2'  i     8S6   3s_h  6S4   6s_d 
A_1g   1.00  1.00  1.00  1.00  1.00  1.00  1.00  1.00  1.00  1.00
A_2g   1.00  1.00  1.00 -1.00 -1.00  1.00  1.00  1.00 -1.00 -1.00
E_g    2.00 -1.00  2.00  0.00  0.00  2.00 -1.00  2.00  0.00  0.00
T_1g   3.00  0.00 -1.00  1.00 -1.00  3.00  0.00 -1.00  1.00 -1.00
T_2g   3.00  0.00 -1.00 -1.00  1.00  3.00  0.00 -1.00 -1.00  1.00
A_1u   1.00  1.00  1.00  1.00  1.00 -1.00 -1.00 -1.00 -1.00 -1.00
A_2u   1.00  1.00  1.00 -1.00 -1.00 -1.00 -1.00 -1.00  1.00  1.00
E_u    2.00 -1.00  2.00  0.00  0.00 -2.00  1.00 -2.00  0.00  0.00
T_1u   3.00  0.00 -1.00  1.00 -1.00 -3.00  0.00  1.00 -1.00  1.00
T_2u   3.00  0.00 -1.00 -1.00  1.00 -3.00  0.00  1.00  1.00 -1.00

     the symmetry operations in each class and the name of the first element:

     E        1
          identity                                               
     8C3     17   19   20   18   24   21   22   23
          120 deg rotation - cart. axis [-1,-1,-1]               
     3C2      2    4    3
          180 deg rotation - cart. axis [0,0,1]                  
     6C4      7    8   15   16   12   11
           90 deg rotation - cart. axis [0,0,-1]                 
     6C2'     5    6   14   13   10    9
          180 deg rotation - cart. axis [1,1,0]                  
     i       25
          inversion                                              
     8S6     41   43   44   42   48   45   46   47
          inv. 120 deg rotation - cart. axis [-1,-1,-1]          
     3s_h    26   28   27
          inv. 180 deg rotation - cart. axis [0,0,1]             
     6S4     31   32   39   40   36   35
          inv.  90 deg rotation - cart. axis [0,0,-1]            
     6s_d    29   30   38   37   34   33
          inv. 180 deg rotation - cart. axis [1,1,0]             

   Cartesian axes

     site n.     atom                  positions (alat units)
         1           Au  tau(   1) = (   0.0000000   0.0000000   0.0000000  )
         2           Au  tau(   2) = (   0.0000000   0.5000000   0.5000000  )
         3           Au  tau(   3) = (   0.5000000   0.0000000   0.5000000  )
         4           Au  tau(   4) = (   0.5000000   0.5000000   0.0000000  )

   Crystallographic axes

     site n.     atom                  positions (cryst. coord.)
         1           Au  tau(   1) = (  0.0000000  0.0000000  0.0000000  )
         2           Au  tau(   2) = (  0.0000000  0.5000000  0.5000000  )
         3           Au  tau(   3) = (  0.5000000  0.0000000  0.5000000  )
         4           Au  tau(   4) = (  0.5000000  0.5000000  0.0000000  )

     number of k points=    84  Gaussian smearing, width (Ry)=  0.0030
                       cart. coord. in units 2pi/alat
        k(    1) = (   0.0000000   0.0000000   0.0000000), wk =   0.0011574
        k(    2) = (   0.0000000   0.0000000   0.0833333), wk =   0.0069444
        k(    3) = (   0.0000000   0.0000000   0.1666667), wk =   0.0069444
        k(    4) = (   0.0000000   0.0000000   0.2500000), wk =   0.0069444
        k(    5) = (   0.0000000   0.0000000   0.3333333), wk =   0.0069444
        k(    6) = (   0.0000000   0.0000000   0.4166667), wk =   0.0069444
        k(    7) = (   0.0000000   0.0000000  -0.5000000), wk =   0.0034722
        k(    8) = (   0.0000000   0.0833333   0.0833333), wk =   0.0138889
        k(    9) = (   0.0000000   0.0833333   0.1666667), wk =   0.0277778
        k(   10) = (   0.0000000   0.0833333   0.2500000), wk =   0.0277778
        k(   11) = (   0.0000000   0.0833333   0.3333333), wk =   0.0277778
        k(   12) = (   0.0000000   0.0833333   0.4166667), wk =   0.0277778
        k(   13) = (   0.0000000   0.0833333  -0.5000000), wk =   0.0138889
        k(   14) = (   0.0000000   0.1666667   0.1666667), wk =   0.0138889
        k(   15) = (   0.0000000   0.1666667   0.2500000), wk =   0.0277778
        k(   16) = (   0.0000000   0.1666667   0.3333333), wk =   0.0277778
        k(   17) = (   0.0000000   0.1666667   0.4166667), wk =   0.0277778
        k(   18) = (   0.0000000   0.1666667  -0.5000000), wk =   0.0138889
        k(   19) = (   0.0000000   0.2500000   0.2500000), wk =   0.0138889
        k(   20) = (   0.0000000   0.2500000   0.3333333), wk =   0.0277778
        k(   21) = (   0.0000000   0.2500000   0.4166667), wk =   0.0277778
        k(   22) = (   0.0000000   0.2500000  -0.5000000), wk =   0.0138889
        k(   23) = (   0.0000000   0.3333333   0.3333333), wk =   0.0138889
        k(   24) = (   0.0000000   0.3333333   0.4166667), wk =   0.0277778
        k(   25) = (   0.0000000   0.3333333  -0.5000000), wk =   0.0138889
        k(   26) = (   0.0000000   0.4166667   0.4166667), wk =   0.0138889
        k(   27) = (   0.0000000   0.4166667  -0.5000000), wk =   0.0138889
        k(   28) = (   0.0000000  -0.5000000  -0.5000000), wk =   0.0034722
        k(   29) = (   0.0833333   0.0833333   0.0833333), wk =   0.0092593
        k(   30) = (   0.0833333   0.0833333   0.1666667), wk =   0.0277778
        k(   31) = (   0.0833333   0.0833333   0.2500000), wk =   0.0277778
        k(   32) = (   0.0833333   0.0833333   0.3333333), wk =   0.0277778
        k(   33) = (   0.0833333   0.0833333   0.4166667), wk =   0.0277778
        k(   34) = (   0.0833333   0.0833333  -0.5000000), wk =   0.0138889
        k(   35) = (   0.0833333   0.1666667   0.1666667), wk =   0.0277778
        k(   36) = (   0.0833333   0.1666667   0.2500000), wk =   0.0555556
        k(   37) = (   0.0833333   0.1666667   0.3333333), wk =   0.0555556
        k(   38) = (   0.0833333   0.1666667   0.4166667), wk =   0.0555556
        k(   39) = (   0.0833333   0.1666667  -0.5000000), wk =   0.0277778
        k(   40) = (   0.0833333   0.2500000   0.2500000), wk =   0.0277778
        k(   41) = (   0.0833333   0.2500000   0.3333333), wk =   0.0555556
        k(   42) = (   0.0833333   0.2500000   0.4166667), wk =   0.0555556
        k(   43) = (   0.0833333   0.2500000  -0.5000000), wk =   0.0277778
        k(   44) = (   0.0833333   0.3333333   0.3333333), wk =   0.0277778
        k(   45) = (   0.0833333   0.3333333   0.4166667), wk =   0.0555556
        k(   46) = (   0.0833333   0.3333333  -0.5000000), wk =   0.0277778
        k(   47) = (   0.0833333   0.4166667   0.4166667), wk =   0.0277778
        k(   48) = (   0.0833333   0.4166667  -0.5000000), wk =   0.0277778
        k(   49) = (   0.0833333  -0.5000000  -0.5000000), wk =   0.0069444
        k(   50) = (   0.1666667   0.1666667   0.1666667), wk =   0.0092593
        k(   51) = (   0.1666667   0.1666667   0.2500000), wk =   0.0277778
        k(   52) = (   0.1666667   0.1666667   0.3333333), wk =   0.0277778
        k(   53) = (   0.1666667   0.1666667   0.4166667), wk =   0.0277778
        k(   54) = (   0.1666667   0.1666667  -0.5000000), wk =   0.0138889
        k(   55) = (   0.1666667   0.2500000   0.2500000), wk =   0.0277778
        k(   56) = (   0.1666667   0.2500000   0.3333333), wk =   0.0555556
        k(   57) = (   0.1666667   0.2500000   0.4166667), wk =   0.0555556
        k(   58) = (   0.1666667   0.2500000  -0.5000000), wk =   0.0277778
        k(   59) = (   0.1666667   0.3333333   0.3333333), wk =   0.0277778
        k(   60) = (   0.1666667   0.3333333   0.4166667), wk =   0.0555556
        k(   61) = (   0.1666667   0.3333333  -0.5000000), wk =   0.0277778
        k(   62) = (   0.1666667   0.4166667   0.4166667), wk =   0.0277778
        k(   63) = (   0.1666667   0.4166667  -0.5000000), wk =   0.0277778
        k(   64) = (   0.1666667  -0.5000000  -0.5000000), wk =   0.0069444
        k(   65) = (   0.2500000   0.2500000   0.2500000), wk =   0.0092593
        k(   66) = (   0.2500000   0.2500000   0.3333333), wk =   0.0277778
        k(   67) = (   0.2500000   0.2500000   0.4166667), wk =   0.0277778
        k(   68) = (   0.2500000   0.2500000  -0.5000000), wk =   0.0138889
        k(   69) = (   0.2500000   0.3333333   0.3333333), wk =   0.0277778
        k(   70) = (   0.2500000   0.3333333   0.4166667), wk =   0.0555556
        k(   71) = (   0.2500000   0.3333333  -0.5000000), wk =   0.0277778
        k(   72) = (   0.2500000   0.4166667   0.4166667), wk =   0.0277778
        k(   73) = (   0.2500000   0.4166667  -0.5000000), wk =   0.0277778
        k(   74) = (   0.2500000  -0.5000000  -0.5000000), wk =   0.0069444
        k(   75) = (   0.3333333   0.3333333   0.3333333), wk =   0.0092593
        k(   76) = (   0.3333333   0.3333333   0.4166667), wk =   0.0277778
        k(   77) = (   0.3333333   0.3333333  -0.5000000), wk =   0.0138889
        k(   78) = (   0.3333333   0.4166667   0.4166667), wk =   0.0277778
        k(   79) = (   0.3333333   0.4166667  -0.5000000), wk =   0.0277778
        k(   80) = (   0.3333333  -0.5000000  -0.5000000), wk =   0.0069444
        k(   81) = (   0.4166667   0.4166667   0.4166667), wk =   0.0092593
        k(   82) = (   0.4166667   0.4166667  -0.5000000), wk =   0.0138889
        k(   83) = (   0.4166667  -0.5000000  -0.5000000), wk =   0.0069444
        k(   84) = (  -0.5000000  -0.5000000  -0.5000000), wk =   0.0011574

                       cryst. coord.
        k(    1) = (   0.0000000   0.0000000   0.0000000), wk =   0.0011574
        k(    2) = (   0.0000000   0.0000000   0.0833333), wk =   0.0069444
        k(    3) = (   0.0000000   0.0000000   0.1666667), wk =   0.0069444
        k(    4) = (   0.0000000   0.0000000   0.2500000), wk =   0.0069444
        k(    5) = (   0.0000000   0.0000000   0.3333333), wk =   0.0069444
        k(    6) = (   0.0000000   0.0000000   0.4166667), wk =   0.0069444
        k(    7) = (   0.0000000   0.0000000  -0.5000000), wk =   0.0034722
        k(    8) = (   0.0000000   0.0833333   0.0833333), wk =   0.0138889
        k(    9) = (   0.0000000   0.0833333   0.1666667), wk =   0.0277778
        k(   10) = (   0.0000000   0.0833333   0.2500000), wk =   0.0277778
        k(   11) = (   0.0000000   0.0833333   0.3333333), wk =   0.0277778
        k(   12) = (   0.0000000   0.0833333   0.4166667), wk =   0.0277778
        k(   13) = (   0.0000000   0.0833333  -0.5000000), wk =   0.0138889
        k(   14) = (   0.0000000   0.1666667   0.1666667), wk =   0.0138889
        k(   15) = (   0.0000000   0.1666667   0.2500000), wk =   0.0277778
        k(   16) = (   0.0000000   0.1666667   0.3333333), wk =   0.0277778
        k(   17) = (   0.0000000   0.1666667   0.4166667), wk =   0.0277778
        k(   18) = (   0.0000000   0.1666667  -0.5000000), wk =   0.0138889
        k(   19) = (   0.0000000   0.2500000   0.2500000), wk =   0.0138889
        k(   20) = (   0.0000000   0.2500000   0.3333333), wk =   0.0277778
        k(   21) = (   0.0000000   0.2500000   0.4166667), wk =   0.0277778
        k(   22) = (   0.0000000   0.2500000  -0.5000000), wk =   0.0138889
        k(   23) = (   0.0000000   0.3333333   0.3333333), wk =   0.0138889
        k(   24) = (   0.0000000   0.3333333   0.4166667), wk =   0.0277778
        k(   25) = (   0.0000000   0.3333333  -0.5000000), wk =   0.0138889
        k(   26) = (   0.0000000   0.4166667   0.4166667), wk =   0.0138889
        k(   27) = (   0.0000000   0.4166667  -0.5000000), wk =   0.0138889
        k(   28) = (   0.0000000  -0.5000000  -0.5000000), wk =   0.0034722
        k(   29) = (   0.0833333   0.0833333   0.0833333), wk =   0.0092593
        k(   30) = (   0.0833333   0.0833333   0.1666667), wk =   0.0277778
        k(   31) = (   0.0833333   0.0833333   0.2500000), wk =   0.0277778
        k(   32) = (   0.0833333   0.0833333   0.3333333), wk =   0.0277778
        k(   33) = (   0.0833333   0.0833333   0.4166667), wk =   0.0277778
        k(   34) = (   0.0833333   0.0833333  -0.5000000), wk =   0.0138889
        k(   35) = (   0.0833333   0.1666667   0.1666667), wk =   0.0277778
        k(   36) = (   0.0833333   0.1666667   0.2500000), wk =   0.0555556
        k(   37) = (   0.0833333   0.1666667   0.3333333), wk =   0.0555556
        k(   38) = (   0.0833333   0.1666667   0.4166667), wk =   0.0555556
        k(   39) = (   0.0833333   0.1666667  -0.5000000), wk =   0.0277778
        k(   40) = (   0.0833333   0.2500000   0.2500000), wk =   0.0277778
        k(   41) = (   0.0833333   0.2500000   0.3333333), wk =   0.0555556
        k(   42) = (   0.0833333   0.2500000   0.4166667), wk =   0.0555556
        k(   43) = (   0.0833333   0.2500000  -0.5000000), wk =   0.0277778
        k(   44) = (   0.0833333   0.3333333   0.3333333), wk =   0.0277778
        k(   45) = (   0.0833333   0.3333333   0.4166667), wk =   0.0555556
        k(   46) = (   0.0833333   0.3333333  -0.5000000), wk =   0.0277778
        k(   47) = (   0.0833333   0.4166667   0.4166667), wk =   0.0277778
        k(   48) = (   0.0833333   0.4166667  -0.5000000), wk =   0.0277778
        k(   49) = (   0.0833333  -0.5000000  -0.5000000), wk =   0.0069444
        k(   50) = (   0.1666667   0.1666667   0.1666667), wk =   0.0092593
        k(   51) = (   0.1666667   0.1666667   0.2500000), wk =   0.0277778
        k(   52) = (   0.1666667   0.1666667   0.3333333), wk =   0.0277778
        k(   53) = (   0.1666667   0.1666667   0.4166667), wk =   0.0277778
        k(   54) = (   0.1666667   0.1666667  -0.5000000), wk =   0.0138889
        k(   55) = (   0.1666667   0.2500000   0.2500000), wk =   0.0277778
        k(   56) = (   0.1666667   0.2500000   0.3333333), wk =   0.0555556
        k(   57) = (   0.1666667   0.2500000   0.4166667), wk =   0.0555556
        k(   58) = (   0.1666667   0.2500000  -0.5000000), wk =   0.0277778
        k(   59) = (   0.1666667   0.3333333   0.3333333), wk =   0.0277778
        k(   60) = (   0.1666667   0.3333333   0.4166667), wk =   0.0555556
        k(   61) = (   0.1666667   0.3333333  -0.5000000), wk =   0.0277778
        k(   62) = (   0.1666667   0.4166667   0.4166667), wk =   0.0277778
        k(   63) = (   0.1666667   0.4166667  -0.5000000), wk =   0.0277778
        k(   64) = (   0.1666667  -0.5000000  -0.5000000), wk =   0.0069444
        k(   65) = (   0.2500000   0.2500000   0.2500000), wk =   0.0092593
        k(   66) = (   0.2500000   0.2500000   0.3333333), wk =   0.0277778
        k(   67) = (   0.2500000   0.2500000   0.4166667), wk =   0.0277778
        k(   68) = (   0.2500000   0.2500000  -0.5000000), wk =   0.0138889
        k(   69) = (   0.2500000   0.3333333   0.3333333), wk =   0.0277778
        k(   70) = (   0.2500000   0.3333333   0.4166667), wk =   0.0555556
        k(   71) = (   0.2500000   0.3333333  -0.5000000), wk =   0.0277778
        k(   72) = (   0.2500000   0.4166667   0.4166667), wk =   0.0277778
        k(   73) = (   0.2500000   0.4166667  -0.5000000), wk =   0.0277778
        k(   74) = (   0.2500000  -0.5000000  -0.5000000), wk =   0.0069444
        k(   75) = (   0.3333333   0.3333333   0.3333333), wk =   0.0092593
        k(   76) = (   0.3333333   0.3333333   0.4166667), wk =   0.0277778
        k(   77) = (   0.3333333   0.3333333  -0.5000000), wk =   0.0138889
        k(   78) = (   0.3333333   0.4166667   0.4166667), wk =   0.0277778
        k(   79) = (   0.3333333   0.4166667  -0.5000000), wk =   0.0277778
        k(   80) = (   0.3333333  -0.5000000  -0.5000000), wk =   0.0069444
        k(   81) = (   0.4166667   0.4166667   0.4166667), wk =   0.0092593
        k(   82) = (   0.4166667   0.4166667  -0.5000000), wk =   0.0138889
        k(   83) = (   0.4166667  -0.5000000  -0.5000000), wk =   0.0069444
        k(   84) = (  -0.5000000  -0.5000000  -0.5000000), wk =   0.0011574

     Dense  grid:    40243 G-vectors     FFT dimensions: (  45,  45,  45)

     Smooth grid:    10131 G-vectors     FFT dimensions: (  27,  27,  27)

     Dynamical RAM for                 wfc:       0.03 MB

     Dynamical RAM for     wfc (w. buffer):       2.66 MB

     Dynamical RAM for           str. fact:       0.04 MB

     Dynamical RAM for           local pot:       0.00 MB

     Dynamical RAM for          nlocal pot:       0.12 MB

     Dynamical RAM for                qrad:       2.60 MB

     Dynamical RAM for          rho,v,vnew:       0.25 MB

     Dynamical RAM for               rhoin:       0.08 MB

     Dynamical RAM for            rho*nmix:       0.61 MB

     Dynamical RAM for           G-vectors:       0.15 MB

     Dynamical RAM for          h,s,v(r/c):       0.01 MB

     Dynamical RAM for          <psi|beta>:       0.04 MB

     Dynamical RAM for                 psi:       0.06 MB

     Dynamical RAM for                hpsi:       0.06 MB

     Dynamical RAM for                spsi:       0.06 MB

     Dynamical RAM for      wfcinit/wfcrot:       0.12 MB

     Dynamical RAM for           addusdens:      13.68 MB

     Dynamical RAM for          addusforce:      13.96 MB

     Dynamical RAM for         addusstress:      14.56 MB

     Estimated static dynamical RAM per process >       6.83 MB

     Estimated max dynamical RAM per process >      21.39 MB

     Estimated total dynamical RAM >     342.27 MB

     Initial potential from superposition of free atoms

     starting charge   43.99951, renormalised to   44.00000
     Starting wfcs are   36 randomized atomic wfcs

     total cpu time spent up to now is        0.6 secs

     Self-consistent Calculation

     iteration #  1     ecut=    30.00 Ry     beta= 0.30
     Davidson diagonalization with overlap
     ethr =  1.00E-02,  avg # of iterations =  2.0

     Threshold (ethr) on eigenvalues was too large:
     Diagonalizing with lowered threshold

     Davidson diagonalization with overlap
     ethr =  4.84E-04,  avg # of iterations =  1.8

     total cpu time spent up to now is        2.2 secs

     total energy              =    -459.93106755 Ry
     estimated scf accuracy    <       0.23386198 Ry

     iteration #  2     ecut=    30.00 Ry     beta= 0.30
     Davidson diagonalization with overlap
     ethr =  5.32E-04,  avg # of iterations =  1.0

     total cpu time spent up to now is        3.0 secs

     total energy              =    -459.93629580 Ry
     estimated scf accuracy    <       0.03488240 Ry

     iteration #  3     ecut=    30.00 Ry     beta= 0.30
     Davidson diagonalization with overlap
     ethr =  7.93E-05,  avg # of iterations =  2.0

     total cpu time spent up to now is        4.0 secs

     total energy              =    -459.94421589 Ry
     estimated scf accuracy    <       0.00279610 Ry

     iteration #  4     ecut=    30.00 Ry     beta= 0.30
     Davidson diagonalization with overlap
     ethr =  6.35E-06,  avg # of iterations =  2.8

     total cpu time spent up to now is        5.2 secs

     total energy              =    -459.94453482 Ry
     estimated scf accuracy    <       0.00136059 Ry

     iteration #  5     ecut=    30.00 Ry     beta= 0.30
     Davidson diagonalization with overlap
     ethr =  3.09E-06,  avg # of iterations =  2.0

     total cpu time spent up to now is        6.1 secs

     total energy              =    -459.94471926 Ry
     estimated scf accuracy    <       0.00001028 Ry

     iteration #  6     ecut=    30.00 Ry     beta= 0.30
     Davidson diagonalization with overlap
     ethr =  2.34E-08,  avg # of iterations =  5.8

     total cpu time spent up to now is        8.0 secs

     total energy              =    -459.94472371 Ry
     estimated scf accuracy    <       0.00004156 Ry

     iteration #  7     ecut=    30.00 Ry     beta= 0.30
     Davidson diagonalization with overlap
     ethr =  2.34E-08,  avg # of iterations =  2.1

     total cpu time spent up to now is        9.1 secs

     total energy              =    -459.94472811 Ry
     estimated scf accuracy    <       0.00000211 Ry

     iteration #  8     ecut=    30.00 Ry     beta= 0.30
     Davidson diagonalization with overlap
     ethr =  4.81E-09,  avg # of iterations =  2.2

     total cpu time spent up to now is       10.2 secs

     total energy              =    -459.94472868 Ry
     estimated scf accuracy    <       0.00000008 Ry

     iteration #  9     ecut=    30.00 Ry     beta= 0.30
     Davidson diagonalization with overlap
     ethr =  1.93E-10,  avg # of iterations =  4.5

     total cpu time spent up to now is       11.7 secs

     total energy              =    -459.94472873 Ry
     estimated scf accuracy    <       0.00000001 Ry

     iteration # 10     ecut=    30.00 Ry     beta= 0.30
     Davidson diagonalization with overlap
     ethr =  2.97E-11,  avg # of iterations =  3.5

     total cpu time spent up to now is       13.1 secs

     End of self-consistent calculation

          k = 0.0000 0.0000 0.0000 (  1309 PWs)   bands (ev):

     5.8265   8.6148   8.6148   8.6148   8.9331   8.9331   8.9331  11.0085
    11.0085  11.0085  12.5311  12.5311  13.6950  13.6950  13.6950  14.0695
    14.0695  14.0695  14.0696  14.0696  14.0696  16.7389  16.7389  16.7389
    21.5549  21.5549

     occupation numbers 
     1.0000   1.0000   1.0000   1.0000   1.0000   1.0000   1.0000   1.0000
     1.0000   1.0000   1.0000   1.0000   1.0000   1.0000   1.0000   1.0000
     1.0000   1.0000   1.0000   1.0000   1.0000   0.0000   0.0000   0.0000
     0.0000   0.0000

          k = 0.0000 0.0000 0.0833 (  1285 PWs)   bands (ev):

     5.9079   8.6429   8.6695   8.6695   8.9628   8.9783   8.9783  10.9656
    11.0452  11.0452  12.4853  12.5493  13.6293  13.6293  13.6732  13.7684
    13.7684  13.9893  13.9893  14.0698  14.0698  16.1667  17.0962  17.0962
    21.4686  21.4686

     occupation numbers 
     1.0000   1.0000   1.0000   1.0000   1.0000   1.0000   1.0000   1.0000
     1.0000   1.0000   1.0000   1.0000   1.0000   1.0000   1.0000   1.0000
     1.0000   1.0000   1.0000   1.0000   1.0000   0.0000   0.0000   0.0000
     0.0000   0.0000

          k = 0.0000 0.0000 0.1667 (  1289 PWs)   bands (ev):

     6.1495   8.7180   8.8277   8.8277   9.0509   9.1137   9.1137  10.8419
    11.1545  11.1545  12.3540  12.6027  13.1291  13.1291  13.4385  13.4385
    13.6098  13.7642  13.7642  14.0701  14.0701  14.9931  17.9013  17.9013
    21.2450  21.2450

     occupation numbers 
     1.0000   1.0000   1.0000   1.0000   1.0000   1.0000   1.0000   1.0000
     1.0000   1.0000   1.0000   1.0000   1.0000   1.0000   1.0000   1.0000
     1.0000   1.0000   1.0000   1.0000   1.0000   1.0000   0.0000   0.0000
     0.0000   0.0000

          k = 0.0000 0.0000 0.2500 (  1285 PWs)   bands (ev):

     6.5412   8.8066   9.0704   9.0704   9.1937   9.3387   9.3387  10.6509
    11.3344  11.3344  12.1569  12.4185  12.4185  12.6886  13.1458  13.1458
    13.4341  13.4341  13.5101  13.7602  14.0706  14.0706  18.8811  18.8811
    20.9668  20.9668

     occupation numbers 
     1.0000   1.0000   1.0000   1.0000   1.0000   1.0000   1.0000   1.0000
     1.0000   1.0000   1.0000   1.0000   1.0000   1.0000   1.0000   1.0000
     1.0000   1.0000   1.0000   1.0000   1.0000   1.0000   0.0000   0.0000
     0.0000   0.0000

          k = 0.0000 0.0000 0.3333 (  1278 PWs)   bands (ev):

     7.0614   8.8355   9.3574   9.3574   9.3851   9.6521   9.6521  10.4120
    11.5811  11.5811  11.7301  11.7301  11.9309  12.7012  12.8024  12.8027
    12.8027  13.0454  13.0454  13.3828  14.0711  14.0711  19.9309  19.9309
    20.7172  20.7172

     occupation numbers 
     1.0000   1.0000   1.0000   1.0000   1.0000   1.0000   1.0000   1.0000
     1.0000   1.0000   1.0000   1.0000   1.0000   1.0000   1.0000   1.0000
     1.0000   1.0000   1.0000   1.0000   1.0000   1.0000   0.0000   0.0000
     0.0000   0.0000

          k = 0.0000 0.0000 0.4167 (  1246 PWs)   bands (ev):

     7.6651   8.6799   9.6126   9.6126   9.6163  10.0520  10.0520  10.1465
    11.0974  11.0974  11.7404  11.8882  11.8882  11.9846  12.5028  12.5028
    12.6390  12.6390  12.9375  13.2378  14.0715  14.0715  20.5510  20.5510
    21.0008  21.0008

     occupation numbers 
     1.0000   1.0000   1.0000   1.0000   1.0000   1.0000   1.0000   1.0000
     1.0000   1.0000   1.0000   1.0000   1.0000   1.0000   1.0000   1.0000
     1.0000   1.0000   1.0000   1.0000   1.0000   1.0000   0.0000   0.0000
     0.0000   0.0000

          k = 0.0000 0.0000-0.5000 (  1238 PWs)   bands (ev):

     8.2571   8.2571   9.7209   9.7210   9.8751   9.8751  10.5354  10.5354
    10.5354  10.5354  11.7002  11.7002  12.2458  12.2458  12.2459  12.2459
    12.3773  12.3773  13.0858  13.0858  14.0716  14.0716  20.4934  20.4935
    22.0527  22.0527

     occupation numbers 
     1.0000   1.0000   1.0000   1.0000   1.0000   1.0000   1.0000   1.0000
     1.0000   1.0000   1.0000   1.0000   1.0000   1.0000   1.0000   1.0000
     1.0000   1.0000   1.0000   1.0000   1.0000   1.0000   0.0000   0.0000
     0.0000   0.0000

          k = 0.0000 0.0833 0.0833 (  1277 PWs)   bands (ev):

     5.9886   8.6981   8.6981   8.7172   9.0075   9.0075   9.0282  10.9469
    11.0589  11.0787  12.4727  12.5383  13.5483  13.5483  13.5677  13.5678
    13.7292  13.7292  13.9892  13.9892  14.0173  16.5284  16.5284  17.4059
    21.3694  22.1760

     occupation numbers 
     1.0000   1.0000   1.0000   1.0000   1.0000   1.0000   1.0000   1.0000
     1.0000   1.0000   1.0000   1.0000   1.0000   1.0000   1.0000   1.0000
     1.0000   1.0000   1.0000   1.0000   1.0000   0.0000   0.0000   0.0000
     0.0000   0.0000

          k = 0.0000 0.0833 0.1667 (  1282 PWs)   bands (ev):

     6.2275   8.7747   8.8562   8.8580   9.0938   9.1412   9.1761  10.8382
    11.1567  11.1775  12.3593  12.5870  12.9693  13.0223  13.2851  13.3878
    13.4743  13.6356  13.7636  13.9889  13.9894  15.4190  17.2897  18.1467
    21.1085  21.9582

     occupation numbers 
     1.0000   1.0000   1.0000   1.0000   1.0000   1.0000   1.0000   1.0000
     1.0000   1.0000   1.0000   1.0000   1.0000   1.0000   1.0000   1.0000
     1.0000   1.0000   1.0000   1.0000   1.0000   1.0000   0.0000   0.0000
     0.0000   0.0000

          k = 0.0000 0.0833 0.2500 (  1277 PWs)   bands (ev):

     6.6148   8.8658   9.0743   9.1037   9.2338   9.3632   9.4138  10.6553
    11.3339  11.3339  12.1791  12.2736  12.3620  12.6833  12.8341  13.1099
    13.1843  13.4329  13.4863  13.9832  13.9883  14.3650  18.1437  19.0852
    20.7738  21.7279

     occupation numbers 
     1.0000   1.0000   1.0000   1.0000   1.0000   1.0000   1.0000   1.0000
     1.0000   1.0000   1.0000   1.0000   1.0000   1.0000   1.0000   1.0000
     1.0000   1.0000   1.0000   1.0000   1.0000   1.0000   0.0000   0.0000
     0.0000   0.0000

          k = 0.0000 0.0833 0.3333 (  1272 PWs)   bands (ev):

     7.1293   8.8969   9.3496   9.3955   9.4213   9.6720   9.7207  10.4236
    11.5108  11.5796  11.6060  11.7031  12.0103  12.2412  12.7827  12.8133
    12.8452  13.0437  13.2131  13.6677  13.9824  13.9875  18.9395  20.1102
    20.4495  21.6328

     occupation numbers 
     1.0000   1.0000   1.0000   1.0000   1.0000   1.0000   1.0000   1.0000
     1.0000   1.0000   1.0000   1.0000   1.0000   1.0000   1.0000   1.0000
     1.0000   1.0000   1.0000   1.0000   1.0000   1.0000   0.0000   0.0000
     0.0000   0.0000

          k = 0.0000 0.0833 0.4167 (  1257 PWs)   bands (ev):

     7.7271   8.7405   9.6249   9.6475   9.6563  10.0655  10.0731  10.1652
    11.0036  11.0891  11.5541  11.7337  11.8863  12.0635  12.5002  12.5397
    12.6369  12.7803  12.9703  13.3533  13.9833  13.9863  19.5417  20.1724
    21.1650  21.8184

     occupation numbers 
     1.0000   1.0000   1.0000   1.0000   1.0000   1.0000   1.0000   1.0000
     1.0000   1.0000   1.0000   1.0000   1.0000   1.0000   1.0000   1.0000
     1.0000   1.0000   1.0000   1.0000   1.0000   1.0000   0.0000   0.0000
     0.0000   0.0000

          k = 0.0000 0.0833-0.5000 (  1256 PWs)   bands (ev):

     8.3161   8.3161   9.7608   9.7608   9.9004   9.9004  10.4892  10.4892
    10.5398  10.5398  11.5302  11.5302  12.2437  12.2437  12.3707  12.3707
    12.3960  12.3960  13.1486  13.1486  13.9848  13.9848  19.9098  19.9098
    22.3054  22.3088

     occupation numbers 
     1.0000   1.0000   1.0000   1.0000   1.0000   1.0000   1.0000   1.0000
     1.0000   1.0000   1.0000   1.0000   1.0000   1.0000   1.0000   1.0000
     1.0000   1.0000   1.0000   1.0000   1.0000   1.0000   0.0000   0.0000
     0.0000   0.0000

          k = 0.0000 0.1667 0.1667 (  1279 PWs)   bands (ev):

     6.4584   8.9395   8.9395   8.9495   9.2223   9.2223   9.3489  10.7868
    11.2072  11.2438  12.3197  12.6018  12.6151  12.6151  12.6868  13.2375
    13.4648  13.4648  13.7618  13.7618  13.8632  16.1745  16.1745  18.7800
    20.7437  23.3612

     occupation numbers 
     1.0000   1.0000   1.0000   1.0000   1.0000   1.0000   1.0000   1.0000
     1.0000   1.0000   1.0000   1.0000   1.0000   1.0000   1.0000   1.0000
     1.0000   1.0000   1.0000   1.0000   1.0000   0.0000   0.0000   0.0000
     0.0000   0.0000

          k = 0.0000 0.1667 0.2500 (  1279 PWs)   bands (ev):

     6.8325   9.0385   9.1170   9.1946   9.3536   9.4352   9.6018  10.6492
    11.3393  11.3540  11.9365  12.1539  12.1807  12.1941  12.7149  13.0000
    13.2090  13.3495  13.4295  13.7589  13.7923  15.1223  16.9601  19.6358
    20.2635  22.9592

     occupation numbers 
     1.0000   1.0000   1.0000   1.0000   1.0000   1.0000   1.0000   1.0000
     1.0000   1.0000   1.0000   1.0000   1.0000   1.0000   1.0000   1.0000
     1.0000   1.0000   1.0000   1.0000   1.0000   1.0000   0.0000   0.0000
     0.0000   0.0000

          k = 0.0000 0.1667 0.3333 (  1263 PWs)   bands (ev):

     7.3293   9.0762   9.3578   9.5019   9.5289   9.7303   9.8905  10.4491
    11.3114  11.4075  11.5861  11.6155  11.6713  12.0939  12.7161  12.8955
    12.8960  13.0392  13.1168  13.7554  13.7625  14.3105  17.6927  19.7745
    20.6059  22.6569

     occupation numbers 
     1.0000   1.0000   1.0000   1.0000   1.0000   1.0000   1.0000   1.0000
     1.0000   1.0000   1.0000   1.0000   1.0000   1.0000   1.0000   1.0000
     1.0000   1.0000   1.0000   1.0000   1.0000   1.0000   0.0000   0.0000
     0.0000   0.0000

          k = 0.0000 0.1667 0.4167 (  1264 PWs)   bands (ev):

     7.9083   8.9162   9.6499   9.7395   9.7826  10.1043  10.1494  10.2163
    10.7710  11.0607  11.3340  11.3542  11.8863  12.1765  12.4785  12.5948
    12.6324  12.7853  13.1246  13.7518  13.7520  13.7678  18.3263  19.3148
    21.6260  22.5396

     occupation numbers 
     1.0000   1.0000   1.0000   1.0000   1.0000   1.0000   1.0000   1.0000
     1.0000   1.0000   1.0000   1.0000   1.0000   1.0000   1.0000   1.0000
     1.0000   1.0000   1.0000   1.0000   1.0000   1.0000   0.0000   0.0000
     0.0000   0.0000

          k = 0.0000 0.1667-0.5000 (  1262 PWs)   bands (ev):

     8.4866   8.4866   9.8706   9.8706   9.9736   9.9737  10.3778  10.3778
    10.5510  10.5510  11.2626  11.2626  12.2406  12.2406  12.4218  12.4218
    12.4392  12.4392  13.4036  13.4036  13.7500  13.7500  18.8531  18.8531
    22.6193  22.6193

     occupation numbers 
     1.0000   1.0000   1.0000   1.0000   1.0000   1.0000   1.0000   1.0000
     1.0000   1.0000   1.0000   1.0000   1.0000   1.0000   1.0000   1.0000
     1.0000   1.0000   1.0000   1.0000   1.0000   1.0000   0.0000   0.0000
     0.0000   0.0000

          k = 0.0000 0.2500 0.2500 (  1286 PWs)   bands (ev):

     7.1842   9.2272   9.3086   9.3086   9.5512   9.5512   9.8533  10.5903
    11.3536  11.4447  11.5250  11.5250  11.8657  12.1279  12.8178  12.8647
    13.1309  13.1309  13.4247  13.4247  13.6173  15.8668  15.8668  19.6086
    20.4157  23.1924

     occupation numbers 
     1.0000   1.0000   1.0000   1.0000   1.0000   1.0000   1.0000   1.0000
     1.0000   1.0000   1.0000   1.0000   1.0000   1.0000   1.0000   1.0000
     1.0000   1.0000   1.0000   1.0000   1.0000   0.0000   0.0000   0.0000
     0.0000   0.0000

          k = 0.0000 0.2500 0.3333 (  1269 PWs)   bands (ev):

     7.6500   9.3577   9.4126   9.6430   9.7049   9.8231  10.1144  10.4619
    10.9622  11.1493  11.3368  11.4525  11.6325  12.0551  12.5910  12.8557
    12.9293  13.0345  13.1189  13.4203  13.5075  14.9810  16.5684  18.9581
    21.3296  22.9723

     occupation numbers 
     1.0000   1.0000   1.0000   1.0000   1.0000   1.0000   1.0000   1.0000
     1.0000   1.0000   1.0000   1.0000   1.0000   1.0000   1.0000   1.0000
     1.0000   1.0000   1.0000   1.0000   1.0000   1.0000   0.0000   0.0000
     0.0000   0.0000

          k = 0.0000 0.2500 0.4167 (  1266 PWs)   bands (ev):

     8.1936   9.1849   9.6730   9.8873   9.9716  10.1635  10.2848  10.2938
    10.4827  10.9721  11.0017  11.2175  11.9066  12.1188  12.4058  12.5770
    12.6307  12.6375  13.4193  13.4417  13.4512  14.3206  17.2097  18.3619
    22.3121  22.8657

     occupation numbers 
     1.0000   1.0000   1.0000   1.0000   1.0000   1.0000   1.0000   1.0000
     1.0000   1.0000   1.0000   1.0000   1.0000   1.0000   1.0000   1.0000
     1.0000   1.0000   1.0000   1.0000   1.0000   1.0000   0.0000   0.0000
     0.0000   0.0000

          k = 0.0000 0.2500-0.5000 (  1260 PWs)   bands (ev):

     8.7475   8.7475   9.9871   9.9871  10.0861  10.0861  10.2928  10.2928
    10.5621  10.5621  11.0442  11.0442  12.2464  12.2464  12.3374  12.3374
    12.3922  12.3922  13.4267  13.4267  13.8306  13.8306  17.7958  17.7958
    22.8968  22.8968

     occupation numbers 
     1.0000   1.0000   1.0000   1.0000   1.0000   1.0000   1.0000   1.0000
     1.0000   1.0000   1.0000   1.0000   1.0000   1.0000   1.0000   1.0000
     1.0000   1.0000   1.0000   1.0000   1.0000   1.0000   0.0000   0.0000
     0.0000   0.0000

          k = 0.0000 0.3333 0.3333 (  1276 PWs)   bands (ev):

     8.0701   9.5256   9.7079   9.7079   9.9435   9.9435  10.3409  10.4309
    10.6947  10.6947  11.2074  11.2757  11.7569  11.9634  12.4163  12.6882
    12.6882  13.0339  13.0339  13.2960  13.4546  15.6354  15.6354  18.1793
    22.1982  22.9160

     occupation numbers 
     1.0000   1.0000   1.0000   1.0000   1.0000   1.0000   1.0000   1.0000
     1.0000   1.0000   1.0000   1.0000   1.0000   1.0000   1.0000   1.0000
     1.0000   1.0000   1.0000   1.0000   1.0000   0.9680   0.9679   0.0000
     0.0000   0.0000

          k = 0.0000 0.3333 0.4167 (  1275 PWs)   bands (ev):

     8.5562   9.4949   9.7011  10.0370  10.0812  10.2346  10.3458  10.3468
    10.4786  10.7030  10.8980  11.1396  11.9749  11.9761  12.2648  12.4243
    12.4387  12.6414  13.0452  13.1568  13.8602  14.9044  16.2610  17.4906
    22.9944  23.1493

     occupation numbers 
     1.0000   1.0000   1.0000   1.0000   1.0000   1.0000   1.0000   1.0000
     1.0000   1.0000   1.0000   1.0000   1.0000   1.0000   1.0000   1.0000
     1.0000   1.0000   1.0000   1.0000   1.0000   1.0000   0.0000   0.0000
     0.0000   0.0000

          k = 0.0000 0.3333-0.5000 (  1274 PWs)   bands (ev):

     9.0582   9.0582   9.9345   9.9345  10.2217  10.2217  10.4166  10.4166
    10.5616  10.5616  10.9130  10.9130  12.1521  12.1521  12.2644  12.2644
    12.2790  12.2790  13.0802  13.0802  14.3323  14.3323  16.8675  16.8675
    23.2356  23.2356

     occupation numbers 
     1.0000   1.0000   1.0000   1.0000   1.0000   1.0000   1.0000   1.0000
     1.0000   1.0000   1.0000   1.0000   1.0000   1.0000   1.0000   1.0000
     1.0000   1.0000   1.0000   1.0000   1.0000   1.0000   0.0000   0.0000
     0.0000   0.0000

          k = 0.0000 0.4167 0.4167 (  1278 PWs)   bands (ev):

     8.9581   9.7320   9.7320   9.7449  10.3048  10.3048  10.3736  10.5917
    10.5917  10.6266  10.7399  11.0549  11.8831  12.1061  12.1241  12.2038
    12.2038  12.6796  12.6796  12.9218  14.3365  15.4932  15.4932  16.7438
    23.2601  24.3138

     occupation numbers 
     1.0000   1.0000   1.0000   1.0000   1.0000   1.0000   1.0000   1.0000
     1.0000   1.0000   1.0000   1.0000   1.0000   1.0000   1.0000   1.0000
     1.0000   1.0000   1.0000   1.0000   1.0000   1.0000   1.0000   0.0000
     0.0000   0.0000

          k = 0.0000 0.4167-0.5000 (  1270 PWs)   bands (ev):

     9.3592   9.3592   9.7864   9.7864  10.3571  10.3571  10.5342  10.5342
    10.6390  10.6390  10.8642  10.8642  11.9733  11.9733  12.0663  12.0663
    12.3627  12.3627  12.7658  12.7658  14.8696  14.8696  16.0945  16.0945
    23.6932  23.6932

     occupation numbers 
     1.0000   1.0000   1.0000   1.0000   1.0000   1.0000   1.0000   1.0000
     1.0000   1.0000   1.0000   1.0000   1.0000   1.0000   1.0000   1.0000
     1.0000   1.0000   1.0000   1.0000   1.0000   1.0000   0.0000   0.0000
     0.0000   0.0000

          k = 0.0000-0.5000-0.5000 (  1260 PWs)   bands (ev):

     9.6017   9.6017   9.6017   9.6017  10.4665  10.4665  10.4665  10.4665
    10.8068  10.8068  10.8068  10.8068  11.9254  11.9254  11.9254  11.9254
    12.5216  12.5216  12.5216  12.5216  15.4455  15.4455  15.4455  15.4455
    24.2992  24.2992

     occupation numbers 
     1.0000   1.0000   1.0000   1.0000   1.0000   1.0000   1.0000   1.0000
     1.0000   1.0000   1.0000   1.0000   1.0000   1.0000   1.0000   1.0000
     1.0000   1.0000   1.0000   1.0000   1.0000   1.0000   1.0000   1.0000
     0.0000   0.0000

          k = 0.0833 0.0833 0.0833 (  1282 PWs)   bands (ev):

     6.0681   8.7459   8.7459   8.7459   9.0572   9.0572   9.0572  10.9312
    11.0899  11.0899  12.4958  12.4958  13.4560  13.4560  13.4560  13.5127
    13.5127  13.5127  13.9785  13.9785  13.9785  16.8284  16.8284  16.8284
    22.0672  22.0672

     occupation numbers 
     1.0000   1.0000   1.0000   1.0000   1.0000   1.0000   1.0000   1.0000
     1.0000   1.0000   1.0000   1.0000   1.0000   1.0000   1.0000   1.0000
     1.0000   1.0000   1.0000   1.0000   1.0000   0.0000   0.0000   0.0000
     0.0000   0.0000

          k = 0.0833 0.0833 0.1667 (  1280 PWs)   bands (ev):

     6.3040   8.8224   8.8847   8.8847   9.1431   9.2047   9.2047  10.8363
    11.1734  11.1826  12.3765  12.5638  12.8855  12.8855  13.1316  13.3501
    13.3603  13.3603  13.8746  13.9533  13.9533  15.7229  17.5135  17.5135
    21.7894  21.7894

     occupation numbers 
     1.0000   1.0000   1.0000   1.0000   1.0000   1.0000   1.0000   1.0000
     1.0000   1.0000   1.0000   1.0000   1.0000   1.0000   1.0000   1.0000
     1.0000   1.0000   1.0000   1.0000   1.0000   0.1191   0.0000   0.0000
     0.0000   0.0000

          k = 0.0833 0.0833 0.2500 (  1277 PWs)   bands (ev):

     6.6862   8.9136   9.1028   9.1028   9.2822   9.4415   9.4415  10.6633
    11.3266  11.3353  12.2108  12.2290  12.2290  12.6295  12.6728  13.0952
    13.1130  13.1130  13.7287  13.9322  13.9322  14.6487  18.3175  18.3175
    21.4653  21.4653

     occupation numbers 
     1.0000   1.0000   1.0000   1.0000   1.0000   1.0000   1.0000   1.0000
     1.0000   1.0000   1.0000   1.0000   1.0000   1.0000   1.0000   1.0000
     1.0000   1.0000   1.0000   1.0000   1.0000   1.0000   0.0000   0.0000
     0.0000   0.0000

          k = 0.0833 0.0833 0.3333 (  1269 PWs)   bands (ev):

     7.1937   8.9452   9.3798   9.3799   9.4671   9.7445   9.7445  10.4404
    11.4778  11.5451  11.5901  11.5901  12.0469  12.0921  12.7805  12.8036
    12.8036  12.8167  13.5562  13.7770  13.9200  13.9200  19.0680  19.0680
    21.2378  21.2378

     occupation numbers 
     1.0000   1.0000   1.0000   1.0000   1.0000   1.0000   1.0000   1.0000
     1.0000   1.0000   1.0000   1.0000   1.0000   1.0000   1.0000   1.0000
     1.0000   1.0000   1.0000   1.0000   1.0000   1.0000   0.0000   0.0000
     0.0000   0.0000

          k = 0.0833 0.0833 0.4167 (  1264 PWs)   bands (ev):

     7.7834   8.7890   9.6628   9.6628   9.6881  10.0786  10.0786  10.1904
    11.0158  11.0159  11.4775  11.5928  11.8065  12.2222  12.4422  12.5210
    12.5210  12.9873  13.1085  13.3680  13.9142  13.9142  19.5797  19.5797
    21.2173  21.2173

     occupation numbers 
     1.0000   1.0000   1.0000   1.0000   1.0000   1.0000   1.0000   1.0000
     1.0000   1.0000   1.0000   1.0000   1.0000   1.0000   1.0000   1.0000
     1.0000   1.0000   1.0000   1.0000   1.0000   1.0000   0.0000   0.0000
     0.0000   0.0000

          k = 0.0833 0.0833-0.5000 (  1264 PWs)   bands (ev):

     8.3662   8.3662   9.8005   9.8005   9.9338   9.9338  10.3597  10.3597
    10.6353  10.6353  11.4323  11.4323  12.1103  12.1103  12.3997  12.3997
    12.5928  12.5928  13.1747  13.1747  13.9125  13.9125  19.7407  19.7407
    21.2875  21.2875

     occupation numbers 
     1.0000   1.0000   1.0000   1.0000   1.0000   1.0000   1.0000   1.0000
     1.0000   1.0000   1.0000   1.0000   1.0000   1.0000   1.0000   1.0000
     1.0000   1.0000   1.0000   1.0000   1.0000   1.0000   0.0000   0.0000
     0.0000   0.0000

          k = 0.0833 0.1667 0.1667 (  1282 PWs)   bands (ev):

     6.5306   8.9607   8.9607   8.9741   9.2897   9.2897   9.3796  10.7936
    11.2179  11.2404  12.3609  12.5450  12.5450  12.5679  12.5750  13.1470
    13.2217  13.2217  13.8618  13.8618  13.8811  16.3755  16.3755  18.0716
    21.3542  23.0368

     occupation numbers 
     1.0000   1.0000   1.0000   1.0000   1.0000   1.0000   1.0000   1.0000
     1.0000   1.0000   1.0000   1.0000   1.0000   1.0000   1.0000   1.0000
     1.0000   1.0000   1.0000   1.0000   1.0000   0.0000   0.0000   0.0000
     0.0000   0.0000

          k = 0.0833 0.1667 0.2500 (  1277 PWs)   bands (ev):

     6.8970   9.0509   9.1370   9.1775   9.4272   9.5251   9.6330  10.6690
    11.3295  11.3429  11.9084  12.0764  12.0852  12.2519  12.6912  12.9299
    12.9656  13.0459  13.7238  13.8056  13.8090  15.2777  17.1119  18.7625
    20.8336  22.4688

     occupation numbers 
     1.0000   1.0000   1.0000   1.0000   1.0000   1.0000   1.0000   1.0000
     1.0000   1.0000   1.0000   1.0000   1.0000   1.0000   1.0000   1.0000
     1.0000   1.0000   1.0000   1.0000   1.0000   1.0000   0.0000   0.0000
     0.0000   0.0000

          k = 0.0833 0.1667 0.3333 (  1260 PWs)   bands (ev):

     7.3827   9.0821   9.3733   9.4565   9.6061   9.8199   9.9160  10.4820
    11.3192  11.3923  11.5256  11.5342  11.6079  12.2005  12.6497  12.6809
    12.7955  12.8794  13.5150  13.7571  13.7588  14.3735  17.8204  19.3334
    20.4781  21.9556

     occupation numbers 
     1.0000   1.0000   1.0000   1.0000   1.0000   1.0000   1.0000   1.0000
     1.0000   1.0000   1.0000   1.0000   1.0000   1.0000   1.0000   1.0000
     1.0000   1.0000   1.0000   1.0000   1.0000   1.0000   0.0000   0.0000
     0.0000   0.0000

          k = 0.0833 0.1667 0.4167 (  1265 PWs)   bands (ev):

     7.9471   8.9254   9.6666   9.7615   9.8113  10.0956  10.1384  10.2624
    10.8453  11.0426  11.2849  11.3283  11.7516  12.3243  12.3715  12.4555
    12.5337  13.1082  13.1805  13.7296  13.7318  13.7467  18.4422  19.3346
    20.6707  21.5270

     occupation numbers 
     1.0000   1.0000   1.0000   1.0000   1.0000   1.0000   1.0000   1.0000
     1.0000   1.0000   1.0000   1.0000   1.0000   1.0000   1.0000   1.0000
     1.0000   1.0000   1.0000   1.0000   1.0000   1.0000   0.0000   0.0000
     0.0000   0.0000

          k = 0.0833 0.1667-0.5000 (  1274 PWs)   bands (ev):

     8.5089   8.5089   9.9089   9.9089  10.0334  10.0334  10.1882  10.1882
    10.7241  10.7242  11.2277  11.2277  12.0196  12.0196  12.3858  12.3859
    12.7414  12.7414  13.3773  13.3773  13.7223  13.7223  18.9534  18.9534
    21.1170  21.1170

     occupation numbers 
     1.0000   1.0000   1.0000   1.0000   1.0000   1.0000   1.0000   1.0000
     1.0000   1.0000   1.0000   1.0000   1.0000   1.0000   1.0000   1.0000
     1.0000   1.0000   1.0000   1.0000   1.0000   1.0000   0.0000   0.0000
     0.0000   0.0000

          k = 0.0833 0.2500 0.2500 (  1276 PWs)   bands (ev):

     7.2366   9.2372   9.2629   9.2629   9.6629   9.6629   9.8835  10.6290
    11.3439  11.4041  11.5103  11.5104  11.7923  12.2162  12.7109  12.8368
    12.8451  12.8451  13.6353  13.6353  13.6773  15.9776  15.9776  19.2456
    20.2077  23.4192

     occupation numbers 
     1.0000   1.0000   1.0000   1.0000   1.0000   1.0000   1.0000   1.0000
     1.0000   1.0000   1.0000   1.0000   1.0000   1.0000   1.0000   1.0000
     1.0000   1.0000   1.0000   1.0000   1.0000   0.0000   0.0000   0.0000
     0.0000   0.0000

          k = 0.0833 0.2500 0.3333 (  1266 PWs)   bands (ev):

     7.6839   9.2855   9.4101   9.5322   9.8384   9.9570  10.1318  10.5219
    10.9995  11.1451  11.3276  11.4207  11.5343  12.2002  12.4979  12.5525
    12.6683  13.0913  13.4002  13.5444  13.5663  15.0288  16.6620  19.0587
    20.3419  22.6666

     occupation numbers 
     1.0000   1.0000   1.0000   1.0000   1.0000   1.0000   1.0000   1.0000
     1.0000   1.0000   1.0000   1.0000   1.0000   1.0000   1.0000   1.0000
     1.0000   1.0000   1.0000   1.0000   1.0000   1.0000   0.0000   0.0000
     0.0000   0.0000

          k = 0.0833 0.2500 0.4167 (  1271 PWs)   bands (ev):

     8.2014   9.1215   9.6528   9.8351  10.0197  10.1612  10.2609  10.3679
    10.6774  10.9688  11.0640  11.2090  11.7160  12.2385  12.3280  12.3623
    12.4560  13.0721  13.4116  13.4863  13.4950  14.3122  17.3018  18.4819
    20.9101  22.0322

     occupation numbers 
     1.0000   1.0000   1.0000   1.0000   1.0000   1.0000   1.0000   1.0000
     1.0000   1.0000   1.0000   1.0000   1.0000   1.0000   1.0000   1.0000
     1.0000   1.0000   1.0000   1.0000   1.0000   1.0000   0.0000   0.0000
     0.0000   0.0000

          k = 0.0833 0.2500-0.5000 (  1268 PWs)   bands (ev):

     8.7206   8.7206   9.9392   9.9392  10.1449  10.1450  10.1952  10.1952
    10.7965  10.7965  11.0374  11.0374  11.9517  11.9517  12.3048  12.3048
    12.6902  12.6902  13.4693  13.4693  13.8006  13.8006  17.8991  17.8991
    21.4712  21.4712

     occupation numbers 
     1.0000   1.0000   1.0000   1.0000   1.0000   1.0000   1.0000   1.0000
     1.0000   1.0000   1.0000   1.0000   1.0000   1.0000   1.0000   1.0000
     1.0000   1.0000   1.0000   1.0000   1.0000   1.0000   0.0000   0.0000
     0.0000   0.0000

          k = 0.0833 0.3333 0.3333 (  1272 PWs)   bands (ev):

     8.0744   9.4987   9.5227   9.5227  10.1453  10.1453  10.3303  10.5253
    10.7464  10.7464  11.2500  11.2732  11.5798  12.1813  12.3007  12.4253
    12.4253  13.2821  13.2821  13.3896  13.4237  15.6775  15.6775  18.2993
    20.8363  23.4503

     occupation numbers 
     1.0000   1.0000   1.0000   1.0000   1.0000   1.0000   1.0000   1.0000
     1.0000   1.0000   1.0000   1.0000   1.0000   1.0000   1.0000   1.0000
     1.0000   1.0000   1.0000   1.0000   1.0000   0.6527   0.6527   0.0000
     0.0000   0.0000

          k = 0.0833 0.3333 0.4167 (  1276 PWs)   bands (ev):

     8.5184   9.3310   9.6338   9.7347  10.3058  10.3547  10.4064  10.4785
    10.5953  10.7206  11.0678  11.1425  11.6823  12.1371  12.1500  12.2649
    12.3096  12.9544  13.2040  13.2564  13.8280  14.9009  16.3068  17.5783
    21.4120  22.6719

     occupation numbers 
     1.0000   1.0000   1.0000   1.0000   1.0000   1.0000   1.0000   1.0000
     1.0000   1.0000   1.0000   1.0000   1.0000   1.0000   1.0000   1.0000
     1.0000   1.0000   1.0000   1.0000   1.0000   1.0000   0.0000   0.0000
     0.0000   0.0000

          k = 0.0833 0.3333-0.5000 (  1270 PWs)   bands (ev):

     8.9635   8.9635   9.7693   9.7693  10.3366  10.3366  10.4004  10.4004
    10.8607  10.8607  10.9188  10.9188  11.8735  11.8735  12.1369  12.1369
    12.5991  12.5991  13.1924  13.1924  14.3055  14.3055  16.9283  16.9283
    22.0099  22.0099

     occupation numbers 
     1.0000   1.0000   1.0000   1.0000   1.0000   1.0000   1.0000   1.0000
     1.0000   1.0000   1.0000   1.0000   1.0000   1.0000   1.0000   1.0000
     1.0000   1.0000   1.0000   1.0000   1.0000   1.0000   0.0000   0.0000
     0.0000   0.0000

          k = 0.0833 0.4167 0.4167 (  1270 PWs)   bands (ev):

     8.8621   9.4992   9.4992   9.6190  10.4997  10.5496  10.5496  10.5542
    10.6595  10.6595  11.0458  11.0761  11.6729  11.9798  12.0132  12.0132
    12.3651  12.8872  12.8872  13.0477  14.3058  15.4969  15.4969  16.7917
    21.9967  23.4149

     occupation numbers 
     1.0000   1.0000   1.0000   1.0000   1.0000   1.0000   1.0000   1.0000
     1.0000   1.0000   1.0000   1.0000   1.0000   1.0000   1.0000   1.0000
     1.0000   1.0000   1.0000   1.0000   1.0000   1.0000   1.0000   0.0000
     0.0000   0.0000

          k = 0.0833 0.4167-0.5000 (  1272 PWs)   bands (ev):

     9.1979   9.1979   9.5889   9.5890  10.5202  10.5202  10.5748  10.5748
    10.9044  10.9044  10.9228  10.9228  11.7859  11.7859  11.9254  11.9254
    12.5785  12.5785  12.9147  12.9147  14.8483  14.8483  16.1139  16.1139
    22.6544  22.6544

     occupation numbers 
     1.0000   1.0000   1.0000   1.0000   1.0000   1.0000   1.0000   1.0000
     1.0000   1.0000   1.0000   1.0000   1.0000   1.0000   1.0000   1.0000
     1.0000   1.0000   1.0000   1.0000   1.0000   1.0000   0.0000   0.0000
     0.0000   0.0000

          k = 0.0833-0.5000-0.5000 (  1268 PWs)   bands (ev):

     9.4039   9.4039   9.4039   9.4039  10.6113  10.6113  10.6113  10.6113
    10.9523  10.9523  10.9523  10.9523  11.7759  11.7759  11.7759  11.7759
    12.6883  12.6883  12.6884  12.6884  15.4376  15.4376  15.4376  15.4376
    23.3965  23.3965

     occupation numbers 
     1.0000   1.0000   1.0000   1.0000   1.0000   1.0000   1.0000   1.0000
     1.0000   1.0000   1.0000   1.0000   1.0000   1.0000   1.0000   1.0000
     1.0000   1.0000   1.0000   1.0000   1.0000   1.0000   1.0000   1.0000
     0.0000   0.0000

          k = 0.1667 0.1667 0.1667 (  1274 PWs)   bands (ev):

     6.7436   9.0375   9.0375   9.0375   9.4715   9.4715   9.4715  10.7861
    11.2543  11.2543  12.2675  12.2675  12.2675  12.4780  12.4780  12.9272
    12.9272  12.9272  13.8908  13.8908  13.8908  16.8781  16.8781  16.8781
    22.3092  22.3092

     occupation numbers 
     1.0000   1.0000   1.0000   1.0000   1.0000   1.0000   1.0000   1.0000
     1.0000   1.0000   1.0000   1.0000   1.0000   1.0000   1.0000   1.0000
     1.0000   1.0000   1.0000   1.0000   1.0000   0.0000   0.0000   0.0000
     0.0000   0.0000

          k = 0.1667 0.1667 0.2500 (  1268 PWs)   bands (ev):

     7.0868   9.1066   9.1844   9.1844   9.6214   9.7286   9.7286  10.7132
    11.3143  11.3260  11.8059  11.8059  11.8395  12.3802  12.6485  12.6550
    12.7381  12.7381  13.8305  13.8305  13.8445  15.7097  17.5146  17.5146
    21.5103  21.5103

     occupation numbers 
     1.0000   1.0000   1.0000   1.0000   1.0000   1.0000   1.0000   1.0000
     1.0000   1.0000   1.0000   1.0000   1.0000   1.0000   1.0000   1.0000
     1.0000   1.0000   1.0000   1.0000   1.0000   0.2345   0.0000   0.0000
     0.0000   0.0000

          k = 0.1667 0.1667 0.3333 (  1265 PWs)   bands (ev):

     7.5384   9.1155   9.4017   9.4017   9.8131   9.9993   9.9993  10.5736
    11.3362  11.3362  11.3471  11.4108  11.4416  12.3538  12.3928  12.5542
    12.5542  12.8721  13.7309  13.7430  13.7430  14.6765  18.1677  18.1677
    20.7897  20.7897

     occupation numbers 
     1.0000   1.0000   1.0000   1.0000   1.0000   1.0000   1.0000   1.0000
     1.0000   1.0000   1.0000   1.0000   1.0000   1.0000   1.0000   1.0000
     1.0000   1.0000   1.0000   1.0000   1.0000   1.0000   0.0000   0.0000
     0.0000   0.0000

          k = 0.1667 0.1667 0.4167 (  1271 PWs)   bands (ev):

     8.0584   8.9563   9.6768   9.6768  10.0159  10.1387  10.1387  10.3981
    11.0128  11.0128  11.1457  11.2587  11.6055  12.0705  12.3658  12.3658
    12.6462  13.1088  13.5586  13.6763  13.6763  13.8143  18.7552  18.7552
    20.1956  20.1956

     occupation numbers 
     1.0000   1.0000   1.0000   1.0000   1.0000   1.0000   1.0000   1.0000
     1.0000   1.0000   1.0000   1.0000   1.0000   1.0000   1.0000   1.0000
     1.0000   1.0000   1.0000   1.0000   1.0000   1.0000   0.0000   0.0000
     0.0000   0.0000

          k = 0.1667 0.1667-0.5000 (  1280 PWs)   bands (ev):

     8.5720   8.5720   9.9290   9.9290  10.0208  10.0208  10.2101  10.2101
    10.9370  10.9370  11.1329  11.1329  11.8171  11.8171  12.2743  12.2743
    13.1335  13.1335  13.3445  13.3445  13.6525  13.6525  19.0824  19.0824
    19.8738  19.8738

     occupation numbers 
     1.0000   1.0000   1.0000   1.0000   1.0000   1.0000   1.0000   1.0000
     1.0000   1.0000   1.0000   1.0000   1.0000   1.0000   1.0000   1.0000
     1.0000   1.0000   1.0000   1.0000   1.0000   1.0000   0.0000   0.0000
     0.0000   0.0000

          k = 0.1667 0.2500 0.2500 (  1267 PWs)   bands (ev):

     7.3896   9.2226   9.2226   9.2521   9.8898   9.8898   9.9783  10.7361
    11.3182  11.3323  11.4568  11.4568  11.5996  12.4282  12.4708  12.4728
    12.4729  12.7653  13.7785  13.8058  13.8058  16.2956  16.2956  18.0617
    20.5300  22.2745

     occupation numbers 
     1.0000   1.0000   1.0000   1.0000   1.0000   1.0000   1.0000   1.0000
     1.0000   1.0000   1.0000   1.0000   1.0000   1.0000   1.0000   1.0000
     1.0000   1.0000   1.0000   1.0000   1.0000   0.0000   0.0000   0.0000
     0.0000   0.0000

          k = 0.1667 0.2500 0.3333 (  1266 PWs)   bands (ev):

     7.7827   9.1900   9.3817   9.3940  10.1029  10.1543  10.1961  10.6971
    11.1098  11.1342  11.2989  11.3488  11.3931  12.1861  12.2804  12.3359
    12.4767  13.0208  13.6785  13.6988  13.6999  15.2088  16.9280  18.6556
    19.6659  21.3893

     occupation numbers 
     1.0000   1.0000   1.0000   1.0000   1.0000   1.0000   1.0000   1.0000
     1.0000   1.0000   1.0000   1.0000   1.0000   1.0000   1.0000   1.0000
     1.0000   1.0000   1.0000   1.0000   1.0000   1.0000   0.0000   0.0000
     0.0000   0.0000

          k = 0.1667 0.2500 0.4167 (  1273 PWs)   bands (ev):

     8.2284   9.0113   9.5536   9.5880  10.2349  10.2538  10.3242  10.6080
    10.9638  11.0103  11.1832  11.2022  11.5106  11.9162  12.1372  12.1930
    12.7208  13.3286  13.4849  13.5854  13.5961  14.3238  17.5602  18.8215
    19.3634  20.6254

     occupation numbers 
     1.0000   1.0000   1.0000   1.0000   1.0000   1.0000   1.0000   1.0000
     1.0000   1.0000   1.0000   1.0000   1.0000   1.0000   1.0000   1.0000
     1.0000   1.0000   1.0000   1.0000   1.0000   1.0000   0.0000   0.0000
     0.0000   0.0000

          k = 0.1667 0.2500-0.5000 (  1262 PWs)   bands (ev):

     8.6668   8.6668   9.6794   9.6794  10.1876  10.1876  10.4911  10.4911
    11.0166  11.0166  11.1258  11.1258  11.6866  11.6866  12.0946  12.0947
    13.1252  13.1252  13.5513  13.5514  13.7149  13.7149  18.1898  18.1898
    19.9556  19.9556

     occupation numbers 
     1.0000   1.0000   1.0000   1.0000   1.0000   1.0000   1.0000   1.0000
     1.0000   1.0000   1.0000   1.0000   1.0000   1.0000   1.0000   1.0000
     1.0000   1.0000   1.0000   1.0000   1.0000   1.0000   0.0000   0.0000
     0.0000   0.0000

          k = 0.1667 0.3333 0.3333 (  1259 PWs)   bands (ev):

     8.0930   9.2959   9.2959   9.3982  10.3456  10.3807  10.3807  10.7971
    10.9335  10.9335  11.2653  11.3573  11.3795  12.0552  12.0723  12.0723
    12.5006  13.3367  13.5669  13.5773  13.5773  15.8135  15.8135  18.6418
    19.2600  22.1539

     occupation numbers 
     1.0000   1.0000   1.0000   1.0000   1.0000   1.0000   1.0000   1.0000
     1.0000   1.0000   1.0000   1.0000   1.0000   1.0000   1.0000   1.0000
     1.0000   1.0000   1.0000   1.0000   1.0000   0.0000   0.0000   0.0000
     0.0000   0.0000

          k = 0.1667 0.3333 0.4167 (  1262 PWs)   bands (ev):

     8.4390   9.0847   9.3994   9.4348  10.3916  10.4260  10.6525  10.8305
    10.8471  11.0490  11.1568  11.3717  11.4449  11.8139  11.9086  11.9664
    12.6681  13.3393  13.4501  13.4539  13.7334  14.9031  16.4385  17.8115
    19.8694  21.2912

     occupation numbers 
     1.0000   1.0000   1.0000   1.0000   1.0000   1.0000   1.0000   1.0000
     1.0000   1.0000   1.0000   1.0000   1.0000   1.0000   1.0000   1.0000
     1.0000   1.0000   1.0000   1.0000   1.0000   1.0000   0.0000   0.0000
     0.0000   0.0000

          k = 0.1667 0.3333-0.5000 (  1264 PWs)   bands (ev):

     8.7840   8.7840   9.4502   9.4502  10.3861  10.3861  10.8230  10.8230
    10.9376  10.9376  11.2856  11.2856  11.5967  11.5967  11.8820  11.8820
    12.9968  12.9968  13.3999  13.3999  14.2278  14.2278  17.0911  17.0911
    20.5403  20.5403

     occupation numbers 
     1.0000   1.0000   1.0000   1.0000   1.0000   1.0000   1.0000   1.0000
     1.0000   1.0000   1.0000   1.0000   1.0000   1.0000   1.0000   1.0000
     1.0000   1.0000   1.0000   1.0000   1.0000   1.0000   0.0000   0.0000
     0.0000   0.0000

          k = 0.1667 0.4167 0.4167 (  1272 PWs)   bands (ev):

     8.6734   9.1659   9.1659   9.3343  10.5050  10.6442  10.6442  10.9078
    11.1223  11.1223  11.2252  11.4207  11.4790  11.7317  11.7344  11.7345
    12.7057  13.2160  13.2160  13.2907  14.2128  15.5078  15.5078  16.9124
    20.5180  22.0797

     occupation numbers 
     1.0000   1.0000   1.0000   1.0000   1.0000   1.0000   1.0000   1.0000
     1.0000   1.0000   1.0000   1.0000   1.0000   1.0000   1.0000   1.0000
     1.0000   1.0000   1.0000   1.0000   1.0000   1.0000   1.0000   0.0000
     0.0000   0.0000

          k = 0.1667 0.4167-0.5000 (  1274 PWs)   bands (ev):

     8.9190   8.9190   9.2479   9.2479  10.5787  10.5787  10.8226  10.8226
[...]
     1.0000   1.0000   1.0000   1.0000   1.0000   1.0000   1.0000   1.0000
     1.0000   1.0000   1.0000   1.0000   1.0000   1.0000   0.0000   0.0000
     0.0000   0.0000

          k = 0.2500 0.2500 0.4167 (  1272 PWs)   bands (ev):

     8.2830   8.9256   9.3574   9.3574  10.3536  10.3536  10.6475  10.9671
    11.0165  11.1542  11.3597  11.3597  11.3648  11.6842  11.9059  11.9059
    13.0555  13.2624  13.6525  13.6525  13.6942  14.5182  17.9131  17.9131
    19.3647  19.3647

     occupation numbers 
     1.0000   1.0000   1.0000   1.0000   1.0000   1.0000   1.0000   1.0000
     1.0000   1.0000   1.0000   1.0000   1.0000   1.0000   1.0000   1.0000
     1.0000   1.0000   1.0000   1.0000   1.0000   1.0000   0.0000   0.0000
     0.0000   0.0000

          k = 0.2500 0.2500-0.5000 (  1262 PWs)   bands (ev):

     8.6276   8.6276   9.3923   9.3923  10.3285  10.3285  10.9049  10.9049
    10.9927  10.9927  11.4449  11.4449  11.4956  11.4956  11.8430  11.8430
    13.5067  13.5067  13.6032  13.6032  13.6651  13.6651  18.3786  18.3786
    18.8241  18.8241

     occupation numbers 
     1.0000   1.0000   1.0000   1.0000   1.0000   1.0000   1.0000   1.0000
     1.0000   1.0000   1.0000   1.0000   1.0000   1.0000   1.0000   1.0000
     1.0000   1.0000   1.0000   1.0000   1.0000   1.0000   0.0000   0.0000
     0.0000   0.0000

          k = 0.2500 0.3333 0.3333 (  1269 PWs)   bands (ev):

     8.1389   9.1130   9.1130   9.2139  10.4397  10.5222  10.5222  11.1548
    11.2358  11.2690  11.2690  11.3063  11.5006  11.7702  11.7702  11.7881
    12.8316  13.2174  13.7154  13.7540  13.7540  16.0575  16.0575  17.7601
    19.1949  20.9341

     occupation numbers 
     1.0000   1.0000   1.0000   1.0000   1.0000   1.0000   1.0000   1.0000
     1.0000   1.0000   1.0000   1.0000   1.0000   1.0000   1.0000   1.0000
     1.0000   1.0000   1.0000   1.0000   1.0000   0.0000   0.0000   0.0000
     0.0000   0.0000

          k = 0.2500 0.3333 0.4167 (  1263 PWs)   bands (ev):

     8.3731   8.8822   9.1191   9.1680  10.4854  10.5256  10.7424  11.0831
    11.2582  11.3034  11.4432  11.4856  11.5595  11.6422  11.7002  11.7173
    13.0349  13.5843  13.6223  13.6406  13.6408  14.9628  16.6241  17.8263
    18.8109  20.0417

     occupation numbers 
     1.0000   1.0000   1.0000   1.0000   1.0000   1.0000   1.0000   1.0000
     1.0000   1.0000   1.0000   1.0000   1.0000   1.0000   1.0000   1.0000
     1.0000   1.0000   1.0000   1.0000   1.0000   1.0000   0.0000   0.0000
     0.0000   0.0000

          k = 0.2500 0.3333-0.5000 (  1268 PWs)   bands (ev):

     8.6269   8.6269   9.1387   9.1387  10.5020  10.5020  10.9393  10.9393
    11.3259  11.3259  11.4493  11.4493  11.5910  11.5910  11.7496  11.7496
    13.3883  13.3883  13.5763  13.5763  14.1190  14.1190  17.2433  17.2433
    19.3027  19.3027

     occupation numbers 
     1.0000   1.0000   1.0000   1.0000   1.0000   1.0000   1.0000   1.0000
     1.0000   1.0000   1.0000   1.0000   1.0000   1.0000   1.0000   1.0000
     1.0000   1.0000   1.0000   1.0000   1.0000   1.0000   0.0000   0.0000
     0.0000   0.0000

          k = 0.2500 0.4167 0.4167 (  1266 PWs)   bands (ev):

     8.5035   8.8841   8.8841   9.0258  10.5993  10.7194  10.7194  11.0253
    11.2204  11.4079  11.4079  11.4810  11.7636  11.7636  11.7895  11.9330
    13.0407  13.5099  13.5099  13.5217  14.0553  15.5264  15.5264  16.9762
    19.2980  20.8325

     occupation numbers 
     1.0000   1.0000   1.0000   1.0000   1.0000   1.0000   1.0000   1.0000
     1.0000   1.0000   1.0000   1.0000   1.0000   1.0000   1.0000   1.0000
     1.0000   1.0000   1.0000   1.0000   1.0000   1.0000   1.0000   0.0000
     0.0000   0.0000

          k = 0.2500 0.4167-0.5000 (  1268 PWs)   bands (ev):

     8.6752   8.6752   8.9316   8.9316  10.6749  10.6750  10.8963  10.8963
    11.2799  11.2799  11.4048  11.4048  11.8666  11.8666  11.9819  11.9819
    13.2600  13.2600  13.4492  13.4492  14.6713  14.6713  16.1876  16.1876
    20.0014  20.0014

     occupation numbers 
     1.0000   1.0000   1.0000   1.0000   1.0000   1.0000   1.0000   1.0000
     1.0000   1.0000   1.0000   1.0000   1.0000   1.0000   1.0000   1.0000
     1.0000   1.0000   1.0000   1.0000   1.0000   1.0000   0.0000   0.0000
     0.0000   0.0000

          k = 0.2500-0.5000-0.5000 (  1272 PWs)   bands (ev):

     8.7765   8.7765   8.7765   8.7765  10.8143  10.8143  10.8143  10.8143
    11.2926  11.2927  11.2927  11.2927  12.0730  12.0730  12.0730  12.0730
    13.2843  13.2843  13.2843  13.2843  15.3379  15.3379  15.3379  15.3379
    20.8067  20.8067

     occupation numbers 
     1.0000   1.0000   1.0000   1.0000   1.0000   1.0000   1.0000   1.0000
     1.0000   1.0000   1.0000   1.0000   1.0000   1.0000   1.0000   1.0000
     1.0000   1.0000   1.0000   1.0000   1.0000   1.0000   1.0000   1.0000
     0.0000   0.0000

          k = 0.3333 0.3333 0.3333 (  1271 PWs)   bands (ev):

     8.2237   8.9816   8.9816   8.9816  10.5982  10.5982  10.5982  11.1590
    11.1590  11.5461  11.5461  11.5461  11.6676  11.6676  11.6676  11.7451
    13.1476  13.1476  13.7859  13.7859  13.7859  16.3936  16.3936  16.3936
    19.8894  19.8894

     occupation numbers 
     1.0000   1.0000   1.0000   1.0000   1.0000   1.0000   1.0000   1.0000
     1.0000   1.0000   1.0000   1.0000   1.0000   1.0000   1.0000   1.0000
     1.0000   1.0000   1.0000   1.0000   1.0000   0.0000   0.0000   0.0000
     0.0000   0.0000

          k = 0.3333 0.3333 0.4167 (  1268 PWs)   bands (ev):

     8.3538   8.7441   8.9030   8.9030  10.6342  10.6342  10.7788  11.0735
    11.1531  11.3519  11.4187  11.4187  11.8508  12.0096  12.0096  12.0565
    13.3896  13.4232  13.7178  13.7178  13.7591  15.1704  16.7490  16.7490
    19.1085  19.1085

     occupation numbers 
     1.0000   1.0000   1.0000   1.0000   1.0000   1.0000   1.0000   1.0000
     1.0000   1.0000   1.0000   1.0000   1.0000   1.0000   1.0000   1.0000
     1.0000   1.0000   1.0000   1.0000   1.0000   1.0000   0.0000   0.0000
     0.0000   0.0000

          k = 0.3333 0.3333-0.5000 (  1266 PWs)   bands (ev):

     8.5296   8.5296   8.8769   8.8769  10.6437  10.6437  10.9444  10.9444
    11.2185  11.2185  11.3777  11.3777  12.0202  12.0202  12.1561  12.1562
    13.6340  13.6340  13.6661  13.6661  14.1307  14.1307  16.9318  16.9318
    18.7840  18.7840

     occupation numbers 
     1.0000   1.0000   1.0000   1.0000   1.0000   1.0000   1.0000   1.0000
     1.0000   1.0000   1.0000   1.0000   1.0000   1.0000   1.0000   1.0000
     1.0000   1.0000   1.0000   1.0000   1.0000   1.0000   0.0000   0.0000
     0.0000   0.0000

          k = 0.3333 0.4167 0.4167 (  1281 PWs)   bands (ev):

     8.3960   8.6759   8.6759   8.7557  10.7274  10.7952  10.7952  11.0445
    11.0855  11.2408  11.2408  11.2700  12.3100  12.3100  12.3796  12.5730
    13.3385  13.6857  13.7040  13.7040  13.8319  15.5541  15.5541  16.5571
    18.7907  19.7928

     occupation numbers 
     1.0000   1.0000   1.0000   1.0000   1.0000   1.0000   1.0000   1.0000
     1.0000   1.0000   1.0000   1.0000   1.0000   1.0000   1.0000   1.0000
     1.0000   1.0000   1.0000   1.0000   1.0000   1.0000   1.0000   0.0000
     0.0000   0.0000

          k = 0.3333 0.4167-0.5000 (  1280 PWs)   bands (ev):

     8.5041   8.5041   8.6796   8.6796  10.7829  10.7829  10.9391  10.9391
    11.1262  11.1262  11.2087  11.2087  12.5292  12.5292  12.5631  12.5632
    13.5539  13.5539  13.6393  13.6393  14.5312  14.5312  16.0601  16.0601
    19.1123  19.1123

     occupation numbers 
     1.0000   1.0000   1.0000   1.0000   1.0000   1.0000   1.0000   1.0000
     1.0000   1.0000   1.0000   1.0000   1.0000   1.0000   1.0000   1.0000
     1.0000   1.0000   1.0000   1.0000   1.0000   1.0000   0.0000   0.0000
     0.0000   0.0000

          k = 0.3333-0.5000-0.5000 (  1280 PWs)   bands (ev):

     8.5542   8.5542   8.5542   8.5542  10.8922  10.8922  10.8922  10.8922
    11.1159  11.1159  11.1159  11.1159  12.7561  12.7561  12.7561  12.7561
    13.5277  13.5277  13.5277  13.5277  15.1923  15.1923  15.1923  15.1923
    19.7749  19.7749

     occupation numbers 
     1.0000   1.0000   1.0000   1.0000   1.0000   1.0000   1.0000   1.0000
     1.0000   1.0000   1.0000   1.0000   1.0000   1.0000   1.0000   1.0000
     1.0000   1.0000   1.0000   1.0000   1.0000   1.0000   1.0000   1.0000
     0.0000   0.0000

          k = 0.4167 0.4167 0.4167 (  1277 PWs)   bands (ev):

     8.3657   8.5488   8.5488   8.5488  10.8551  10.8551  10.8551  11.0223
    11.0223  11.1175  11.1175  11.1175  12.8041  12.8041  12.8041  13.4599
    13.5713  13.5713  13.7543  13.7543  13.7543  15.5872  15.5872  15.5872
    19.0761  19.0761

     occupation numbers 
     1.0000   1.0000   1.0000   1.0000   1.0000   1.0000   1.0000   1.0000
     1.0000   1.0000   1.0000   1.0000   1.0000   1.0000   1.0000   1.0000
     1.0000   1.0000   1.0000   1.0000   1.0000   0.9998   0.9998   0.9998
     0.0000   0.0000

          k = 0.4167 0.4167-0.5000 (  1290 PWs)   bands (ev):

     8.4170   8.4170   8.5061   8.5061  10.8803  10.8803  10.9580  10.9581
    11.0333  11.0333  11.0718  11.0718  13.0363  13.0363  13.1942  13.1942
    13.7152  13.7152  13.7227  13.7227  14.5106  14.5106  15.6043  15.6043
    18.8143  18.8143

     occupation numbers 
     1.0000   1.0000   1.0000   1.0000   1.0000   1.0000   1.0000   1.0000
     1.0000   1.0000   1.0000   1.0000   1.0000   1.0000   1.0000   1.0000
     1.0000   1.0000   1.0000   1.0000   1.0000   1.0000   0.9983   0.9983
     0.0000   0.0000

          k = 0.4167-0.5000-0.5000 (  1292 PWs)   bands (ev):

     8.4176   8.4176   8.4176   8.4176  10.9480  10.9480  10.9480  10.9480
    11.0057  11.0057  11.0057  11.0057  13.4001  13.4001  13.4001  13.4001
    13.6874  13.6874  13.6874  13.6874  14.9442  14.9442  14.9442  14.9442
    19.0799  19.0799

     occupation numbers 
     1.0000   1.0000   1.0000   1.0000   1.0000   1.0000   1.0000   1.0000
     1.0000   1.0000   1.0000   1.0000   1.0000   1.0000   1.0000   1.0000
     1.0000   1.0000   1.0000   1.0000   1.0000   1.0000   1.0000   1.0000
     0.0000   0.0000

          k =-0.5000-0.5000-0.5000 (  1328 PWs)   bands (ev):

     8.3715   8.3715   8.3715   8.3715  10.9684  10.9684  10.9684  10.9684
    10.9684  10.9684  10.9684  10.9684  13.7430  13.7430  13.7430  13.7430
    13.7430  13.7430  13.7430  13.7430  14.7480  14.7480  14.7480  14.7480
    18.8330  18.8330

     occupation numbers 
     1.0000   1.0000   1.0000   1.0000   1.0000   1.0000   1.0000   1.0000
     1.0000   1.0000   1.0000   1.0000   1.0000   1.0000   1.0000   1.0000
     1.0000   1.0000   1.0000   1.0000   1.0000   1.0000   1.0000   1.0000
     0.0000   0.0000

     the Fermi energy is    15.6888 ev

!    total energy              =    -459.94472874 Ry
     estimated scf accuracy    <          5.4E-09 Ry
     smearing contrib. (-TS)   =      -0.00007795 Ry
     internal energy E=F+TS    =    -459.94465079 Ry

     The total energy is F=E-TS. E is the sum of the following terms:
     one-electron contribution =      43.51109701 Ry
     hartree contribution      =      33.60931284 Ry
     xc contribution           =    -249.12709950 Ry
     ewald contribution        =    -287.93796113 Ry

     convergence has been achieved in  10 iterations

     Forces acting on atoms (cartesian axes, Ry/au):

     atom    1 type  1   force =     0.00000000    0.00000000    0.00000000
     atom    2 type  1   force =     0.00000000    0.00000000    0.00000000
     atom    3 type  1   force =     0.00000000    0.00000000    0.00000000
     atom    4 type  1   force =     0.00000000    0.00000000    0.00000000
     The non-local contrib.  to forces
     atom    1 type  1   force =     0.00000000    0.00000000    0.00000000
     atom    2 type  1   force =     0.00000000    0.00000000    0.00000000
     atom    3 type  1   force =     0.00000000    0.00000000    0.00000000
     atom    4 type  1   force =     0.00000000    0.00000000    0.00000000
     The ionic contribution  to forces
     atom    1 type  1   force =    -0.00000000   -0.00000000   -0.00000000
     atom    2 type  1   force =    -0.00000000    0.00000000    0.00000000
     atom    3 type  1   force =     0.00000000   -0.00000000    0.00000000
     atom    4 type  1   force =     0.00000000    0.00000000   -0.00000000
     The local contribution  to forces
     atom    1 type  1   force =     0.00000000    0.00000000    0.00000000
     atom    2 type  1   force =     0.00000000    0.00000000    0.00000000
     atom    3 type  1   force =     0.00000000    0.00000000    0.00000000
     atom    4 type  1   force =     0.00000000    0.00000000    0.00000000
     The core correction contribution to forces
     atom    1 type  1   force =    -0.00000000   -0.00000000   -0.00000000
     atom    2 type  1   force =    -0.00000000    0.00000000    0.00000000
     atom    3 type  1   force =     0.00000000   -0.00000000    0.00000000
     atom    4 type  1   force =     0.00000000    0.00000000   -0.00000000
     The Hubbard contrib.    to forces
     atom    1 type  1   force =     0.00000000    0.00000000    0.00000000
     atom    2 type  1   force =     0.00000000    0.00000000    0.00000000
     atom    3 type  1   force =     0.00000000    0.00000000    0.00000000
     atom    4 type  1   force =     0.00000000    0.00000000    0.00000000
     The SCF correction term to forces
     atom    1 type  1   force =    -0.00000000    0.00000000    0.00000000
     atom    2 type  1   force =    -0.00000000    0.00000000    0.00000000
     atom    3 type  1   force =     0.00000000    0.00000000    0.00000000
     atom    4 type  1   force =     0.00000000   -0.00000000    0.00000000

     Total force =     0.000000     Total SCF correction =     0.000000


     Computing stress (Cartesian axis) and pressure

          total   stress  (Ry/bohr**3)                   (kbar)     P=       90.16
   0.00061286   0.00000000   0.00000000           90.16        0.00        0.00
   0.00000000   0.00061286   0.00000000            0.00       90.16        0.00
   0.00000000   0.00000000   0.00061286            0.00        0.00       90.16

     kinetic stress (kbar)  21583.97      0.00      0.00
                                0.00  21583.97      0.00
                                0.00      0.00  21583.97

     local   stress (kbar)  27860.79     -0.00     -0.00
                               -0.00  27860.79      0.00
                               -0.00      0.00  27860.79

     nonloc. stress (kbar) -13492.77      0.00      0.00
                                0.00 -13492.77      0.00
                                0.00      0.00 -13492.77

     hartree stress (kbar)   3600.38     -0.00     -0.00
                               -0.00   3600.38     -0.00
                               -0.00     -0.00   3600.38

     exc-cor stress (kbar)  55722.35     -0.00      0.00
                               -0.00  55722.35      0.00
                                0.00      0.00  55722.35

     corecor stress (kbar) -64339.39     -0.00     -0.00
                               -0.00 -64339.39     -0.00
                               -0.00     -0.00 -64339.39

     ewald   stress (kbar) -30845.17      0.00     -0.00
                                0.00 -30845.17     -0.00
                               -0.00     -0.00 -30845.17

     hubbard stress (kbar)      0.00      0.00      0.00
                                0.00      0.00      0.00
                                0.00      0.00      0.00

     DFT-D   stress (kbar)      0.00      0.00      0.00
                                0.00      0.00      0.00
                                0.00      0.00      0.00

     XDM     stress (kbar)      0.00      0.00      0.00
                                0.00      0.00      0.00
                                0.00      0.00      0.00

     dft-nl  stress (kbar)      0.00      0.00      0.00
                                0.00      0.00      0.00
                                0.00      0.00      0.00

     TS-vdW  stress (kbar)      0.00      0.00      0.00
                                0.00      0.00      0.00
                                0.00      0.00      0.00



     Writing output data file ./au.save/

     init_run     :      0.42s CPU      0.47s WALL (       1 calls)
     electrons    :     12.08s CPU     12.53s WALL (       1 calls)
     forces       :      0.14s CPU      0.15s WALL (       1 calls)
     stress       :      0.32s CPU      0.32s WALL (       1 calls)

     Called by init_run:
     wfcinit      :      0.35s CPU      0.36s WALL (       1 calls)
     wfcinit:atom :      0.00s CPU      0.00s WALL (      84 calls)
     wfcinit:wfcr :      0.33s CPU      0.34s WALL (      84 calls)
     potinit      :      0.01s CPU      0.01s WALL (       1 calls)
     hinit0       :      0.03s CPU      0.05s WALL (       1 calls)

     Called by electrons:
     c_bands      :     10.68s CPU     11.00s WALL (      11 calls)
     sum_band     :      1.17s CPU      1.23s WALL (      11 calls)
     v_of_rho     :      0.04s CPU      0.04s WALL (      11 calls)
     v_h          :      0.00s CPU      0.00s WALL (      11 calls)
     v_xc         :      0.04s CPU      0.05s WALL (      13 calls)
     newd         :      0.19s CPU      0.20s WALL (      11 calls)
     mix_rho      :      0.01s CPU      0.01s WALL (      11 calls)

     Called by c_bands:
     init_us_2    :      0.08s CPU      0.08s WALL (    2100 calls)
     cegterg      :     10.42s CPU     10.74s WALL (     924 calls)

     Called by sum_band:
     sum_band:wei :      0.01s CPU      0.01s WALL (      11 calls)
     sum_band:loo :      0.86s CPU      0.90s WALL (      11 calls)
     sum_band:buf :      0.01s CPU      0.01s WALL (     924 calls)
     sum_band:ini :      0.03s CPU      0.03s WALL (     924 calls)
     sum_band:cal :      0.15s CPU      0.15s WALL (     924 calls)
     sum_band:bec :      0.02s CPU      0.02s WALL (     924 calls)
     addusdens    :      0.24s CPU      0.25s WALL (      11 calls)
     addusd:skk   :      0.00s CPU      0.00s WALL (      11 calls)
     addusd:dgemm :      0.13s CPU      0.14s WALL (      11 calls)
     addusd:qvan2 :      0.09s CPU      0.09s WALL (      11 calls)

     Called by *egterg:
     cdiaghg      :      4.02s CPU      4.08s WALL (    3352 calls)
     cegterg:over :      0.79s CPU      0.81s WALL (    2512 calls)
     cegterg:upda :      0.29s CPU      0.30s WALL (    2512 calls)
     cegterg:last :      0.60s CPU      0.61s WALL (    2069 calls)
     cdiaghg:chol :      0.20s CPU      0.21s WALL (    3352 calls)
     cdiaghg:inve :      0.06s CPU      0.06s WALL (    3352 calls)
     cdiaghg:para :      0.38s CPU      0.39s WALL (    6704 calls)
     h_psi        :      4.54s CPU      4.74s WALL (    3520 calls)
     s_psi        :      0.25s CPU      0.26s WALL (    3520 calls)
     g_psi        :      0.01s CPU      0.01s WALL (    2512 calls)

     Called by h_psi:
     h_psi:calbec :      0.46s CPU      0.48s WALL (    3520 calls)
     vloc_psi     :      3.81s CPU      3.98s WALL (    3520 calls)
     add_vuspsi   :      0.26s CPU      0.27s WALL (    3520 calls)

     General routines
     calbec       :      0.66s CPU      0.69s WALL (    4864 calls)
     fft          :      0.03s CPU      0.04s WALL (     167 calls)
     ffts         :      0.00s CPU      0.00s WALL (      22 calls)
     fftw         :      4.24s CPU      4.43s WALL (  163038 calls)
     interpolate  :      0.00s CPU      0.00s WALL (      11 calls)

     Parallel routines
     fft_scatt_xy :      0.25s CPU      0.26s WALL (  163227 calls)
     fft_scatt_yz :      2.37s CPU      2.49s WALL (  163227 calls)

     PWSCF        :     13.24s CPU     13.96s WALL


   This run was terminated on:  22:28:37  24Nov2021            

=------------------------------------------------------------------------------=
   JOB DONE.
=------------------------------------------------------------------------------=
