
     Program PWSCF v.6.7MaX starts on 10Dec2021 at  3:51:44 

     This program is part of the open-source Quantum ESPRESSO suite
     for quantum simulation of materials; please cite
         "P. Giannozzi et al., J. Phys.:Condens. Matter 21 395502 (2009);
         "P. Giannozzi et al., J. Phys.:Condens. Matter 29 465901 (2017);
          URL http://www.quantum-espresso.org", 
     in publications or presentations arising from this work. More details at
     http://www.quantum-espresso.org/quote

     Parallel version (MPI), running on    16 processors

     MPI processes distributed on     1 nodes
     R & G space division:  proc/nbgrp/npool/nimage =      16
     Reading input from au_surface.110.qe.7656383.1_1_3.in

     Current dimensions of program PWSCF are:
     Max number of different atomic species (ntypx) = 10
     Max number of k-points (npk) =  40000
     Max angular momentum in pseudopotentials (lmaxx) =  3

     Subspace diagonalization in iterative solution of the eigenvalue problem:
     one sub-group per band group will be used
     scalapack distributed-memory algorithm (size of sub-group:  4*  4 procs)


     Parallelization info
     --------------------
     sticks:   dense  smooth     PW     G-vecs:    dense   smooth      PW
     Min          62      25      8                 8101     2051     369
     Max          63      26     10                 8108     2066     376
     Sum        1001     409    133               129659    32975    5953



     bravais-lattice index     =            8
     lattice parameter (alat)  =       7.7068  a.u.
     unit-cell volume          =    1480.2607 (a.u.)^3
     number of atoms/cell      =            6
     number of atomic types    =            1
     number of electrons       =        66.00
     number of Kohn-Sham states=           40
     kinetic-energy cutoff     =      30.0000  Ry
     charge density cutoff     =     300.0000  Ry
     scf convergence threshold =      1.0E-06
     mixing beta               =       0.3000
     number of iterations used =            8  plain     mixing
     energy convergence thresh.=      1.0E-04
     force convergence thresh. =      1.0E-03
     Exchange-correlation= SLA  PW   PBE  PBE
                           (   1   4   3   4   0   0   0)
     nstep                     =           50


     celldm(1)=   7.706776  celldm(2)=   0.707107  celldm(3)=   4.573354
     celldm(4)=   0.000000  celldm(5)=   0.000000  celldm(6)=   0.000000

     crystal axes: (cart. coord. in units of alat)
               a(1) = (   1.000000   0.000000   0.000000 )  
               a(2) = (   0.000000   0.707107   0.000000 )  
               a(3) = (   0.000000   0.000000   4.573354 )  

     reciprocal axes: (cart. coord. in units 2 pi/alat)
               b(1) = (  1.000000  0.000000  0.000000 )  
               b(2) = (  0.000000  1.414213  0.000000 )  
               b(3) = (  0.000000  0.000000  0.218658 )  


     PseudoPot. # 1 for Au read from file:
     /expanse/lustre/projects/csd622/tpascal/nano110/qe/pseudo/au_pbe_v1.uspp.F.UPF
     MD5 check sum: 9d7f43293ad2c663164586bc4b293ffc
     Pseudo is Ultrasoft + core correction, Zval = 11.0
     Generated by new atomic code, or converted to UPF format
     Using radial grid of  985 points,  7 beta functions with: 
                l(1) =   0
                l(2) =   0
                l(3) =   1
                l(4) =   1
                l(5) =   2
                l(6) =   2
                l(7) =   3
     Q(r) pseudized with  6 coefficients,  rinner =    1.900   1.900   1.900
                                                       1.900   1.900   1.900
                                                       1.900

     atomic species   valence    mass     pseudopotential
        Au            11.00   196.96655     Au( 1.00)

      4 Sym. Ops. (no inversion) found


                                    s                        frac. trans.

      isym =  1     identity                                     

 cryst.   s( 1) = (     1          0          0      )
                  (     0          1          0      )
                  (     0          0          1      )

 cart.    s( 1) = (  1.0000000  0.0000000  0.0000000 )
                  (  0.0000000  1.0000000  0.0000000 )
                  (  0.0000000  0.0000000  1.0000000 )


      isym =  2     180 deg rotation - cart. axis [0,0,1]        

 cryst.   s( 2) = (    -1          0          0      )
                  (     0         -1          0      )
                  (     0          0          1      )

 cart.    s( 2) = ( -1.0000000  0.0000000  0.0000000 )
                  (  0.0000000 -1.0000000  0.0000000 )
                  (  0.0000000  0.0000000  1.0000000 )


      isym =  3     inv. 180 deg rotation - cart. axis [0,1,0]   

 cryst.   s( 3) = (     1          0          0      )
                  (     0         -1          0      )
                  (     0          0          1      )

 cart.    s( 3) = (  1.0000000  0.0000000  0.0000000 )
                  (  0.0000000 -1.0000000  0.0000000 )
                  (  0.0000000  0.0000000  1.0000000 )


      isym =  4     inv. 180 deg rotation - cart. axis [1,0,0]   

 cryst.   s( 4) = (    -1          0          0      )
                  (     0          1          0      )
                  (     0          0          1      )

 cart.    s( 4) = ( -1.0000000  0.0000000  0.0000000 )
                  (  0.0000000  1.0000000  0.0000000 )
                  (  0.0000000  0.0000000  1.0000000 )


     point group C_2v (mm2) 
     there are  4 classes
     the character table:

       E     C2    s_v   s_v' 
A_1    1.00  1.00  1.00  1.00
A_2    1.00  1.00 -1.00 -1.00
B_1    1.00 -1.00  1.00 -1.00
B_2    1.00 -1.00 -1.00  1.00

     the symmetry operations in each class and the name of the first element:

     E        1
          identity                                               
     C2       2
          180 deg rotation - cart. axis [0,0,1]                  
     s_v      4
          inv. 180 deg rotation - cart. axis [1,0,0]             
     s_v'     3
          inv. 180 deg rotation - cart. axis [0,1,0]             

   Cartesian axes

     site n.     atom                  positions (alat units)
         1           Au  tau(   1) = (   0.0000000   0.0000000   0.0000000  )
         2           Au  tau(   2) = (   0.0000000   0.0000000   0.7071072  )
         3           Au  tau(   3) = (   0.0000000   0.0000000   1.4142144  )
         4           Au  tau(   4) = (   0.5000000   0.3535536   0.3535536  )
         5           Au  tau(   5) = (   0.5000000   0.3535536   1.0606608  )
         6           Au  tau(   6) = (   0.5000000   0.3535536   1.7677680  )

   Crystallographic axes

     site n.     atom                  positions (cryst. coord.)
         1           Au  tau(   1) = (  0.0000000  0.0000000  0.0000000  )
         2           Au  tau(   2) = (  0.0000000  0.0000000  0.1546146  )
         3           Au  tau(   3) = (  0.0000000  0.0000000  0.3092292  )
         4           Au  tau(   4) = (  0.5000000  0.5000000  0.0773073  )
         5           Au  tau(   5) = (  0.5000000  0.5000000  0.2319219  )
         6           Au  tau(   6) = (  0.5000000  0.5000000  0.3865365  )

     number of k points=     9  Gaussian smearing, width (Ry)=  0.0030
                       cart. coord. in units 2pi/alat
        k(    1) = (   0.0000000   0.0000000   0.0000000), wk =   0.1250000
        k(    2) = (   0.0000000   0.3535532   0.0000000), wk =   0.2500000
        k(    3) = (   0.0000000  -0.7071063   0.0000000), wk =   0.1250000
        k(    4) = (   0.2500000   0.0000000   0.0000000), wk =   0.2500000
        k(    5) = (   0.2500000   0.3535532   0.0000000), wk =   0.5000000
        k(    6) = (   0.2500000  -0.7071063   0.0000000), wk =   0.2500000
        k(    7) = (  -0.5000000   0.0000000   0.0000000), wk =   0.1250000
        k(    8) = (  -0.5000000   0.3535532   0.0000000), wk =   0.2500000
        k(    9) = (  -0.5000000  -0.7071063   0.0000000), wk =   0.1250000

                       cryst. coord.
        k(    1) = (   0.0000000   0.0000000   0.0000000), wk =   0.1250000
        k(    2) = (   0.0000000   0.2500000   0.0000000), wk =   0.2500000
        k(    3) = (   0.0000000  -0.5000000   0.0000000), wk =   0.1250000
        k(    4) = (   0.2500000   0.0000000   0.0000000), wk =   0.2500000
        k(    5) = (   0.2500000   0.2500000   0.0000000), wk =   0.5000000
        k(    6) = (   0.2500000  -0.5000000   0.0000000), wk =   0.2500000
        k(    7) = (  -0.5000000   0.0000000   0.0000000), wk =   0.1250000
        k(    8) = (  -0.5000000   0.2500000   0.0000000), wk =   0.2500000
        k(    9) = (  -0.5000000  -0.5000000   0.0000000), wk =   0.1250000

     Dense  grid:   129659 G-vectors     FFT dimensions: (  45,  32, 200)

     Smooth grid:    32975 G-vectors     FFT dimensions: (  27,  20, 125)

     Dynamical RAM for                 wfc:       0.16 MB

     Dynamical RAM for     wfc (w. buffer):       1.56 MB

     Dynamical RAM for           str. fact:       0.12 MB

     Dynamical RAM for           local pot:       0.00 MB

     Dynamical RAM for          nlocal pot:       0.59 MB

     Dynamical RAM for                qrad:       2.60 MB

     Dynamical RAM for          rho,v,vnew:       0.80 MB

     Dynamical RAM for               rhoin:       0.27 MB

     Dynamical RAM for            rho*nmix:       1.98 MB

     Dynamical RAM for           G-vectors:       0.48 MB

     Dynamical RAM for          h,s,v(r/c):       0.02 MB

     Dynamical RAM for          <psi|beta>:       0.09 MB

     Dynamical RAM for                 psi:       0.31 MB

     Dynamical RAM for                hpsi:       0.31 MB

     Dynamical RAM for                spsi:       0.31 MB

     Dynamical RAM for      wfcinit/wfcrot:       0.49 MB

     Dynamical RAM for           addusdens:      44.29 MB

     Dynamical RAM for          addusforce:      45.63 MB

     Dynamical RAM for         addusstress:      46.88 MB

     Estimated static dynamical RAM per process >       9.35 MB

     Estimated max dynamical RAM per process >      56.24 MB

     Estimated total dynamical RAM >     899.81 MB

     Check: negative core charge=   -0.000003

     Initial potential from superposition of free atoms

     starting charge   65.99927, renormalised to   66.00000

     negative rho (up, down):  3.901E-06 0.000E+00
     Starting wfcs are   54 randomized atomic wfcs

     total cpu time spent up to now is        0.6 secs

     Self-consistent Calculation

     iteration #  1     ecut=    30.00 Ry     beta= 0.30
     Davidson diagonalization with overlap
     ethr =  1.00E-02,  avg # of iterations =  2.6

     Threshold (ethr) on eigenvalues was too large:
     Diagonalizing with lowered threshold

     Davidson diagonalization with overlap
     ethr =  5.84E-04,  avg # of iterations =  1.4

     negative rho (up, down):  1.488E-06 0.000E+00

     total cpu time spent up to now is        1.4 secs

     total energy              =    -689.74795545 Ry
     estimated scf accuracy    <       0.41603412 Ry

     iteration #  2     ecut=    30.00 Ry     beta= 0.30
     Davidson diagonalization with overlap
     ethr =  6.30E-04,  avg # of iterations =  2.2

     negative rho (up, down):  3.802E-06 0.000E+00

     total cpu time spent up to now is        1.8 secs

     total energy              =    -689.74077813 Ry
     estimated scf accuracy    <       0.42507443 Ry

     iteration #  3     ecut=    30.00 Ry     beta= 0.30
     Davidson diagonalization with overlap
     ethr =  6.30E-04,  avg # of iterations =  3.2

     negative rho (up, down):  3.794E-06 0.000E+00

     total cpu time spent up to now is        2.3 secs

     total energy              =    -689.79511866 Ry
     estimated scf accuracy    <       0.13293825 Ry

     iteration #  4     ecut=    30.00 Ry     beta= 0.30
     Davidson diagonalization with overlap
     ethr =  2.01E-04,  avg # of iterations =  1.1

     negative rho (up, down):  5.389E-06 0.000E+00

     total cpu time spent up to now is        2.7 secs

     total energy              =    -689.80575540 Ry
     estimated scf accuracy    <       0.00486947 Ry

     iteration #  5     ecut=    30.00 Ry     beta= 0.30
     Davidson diagonalization with overlap
     ethr =  7.38E-06,  avg # of iterations =  4.1

     negative rho (up, down):  7.361E-06 0.000E+00

     total cpu time spent up to now is        3.3 secs

     total energy              =    -689.80628862 Ry
     estimated scf accuracy    <       0.00137487 Ry

     iteration #  6     ecut=    30.00 Ry     beta= 0.30
     Davidson diagonalization with overlap
     ethr =  2.08E-06,  avg # of iterations =  3.9

     negative rho (up, down):  7.982E-06 0.000E+00

     total cpu time spent up to now is        3.8 secs

     total energy              =    -689.80622290 Ry
     estimated scf accuracy    <       0.00211273 Ry

     iteration #  7     ecut=    30.00 Ry     beta= 0.30
     Davidson diagonalization with overlap
     ethr =  2.08E-06,  avg # of iterations =  3.0

     negative rho (up, down):  8.615E-06 0.000E+00

     total cpu time spent up to now is        4.2 secs

     total energy              =    -689.80638485 Ry
     estimated scf accuracy    <       0.00084508 Ry

     iteration #  8     ecut=    30.00 Ry     beta= 0.30
     Davidson diagonalization with overlap
     ethr =  1.28E-06,  avg # of iterations =  1.0

     negative rho (up, down):  8.912E-06 0.000E+00

     total cpu time spent up to now is        4.6 secs

     total energy              =    -689.80642729 Ry
     estimated scf accuracy    <       0.00001653 Ry

     iteration #  9     ecut=    30.00 Ry     beta= 0.30
     Davidson diagonalization with overlap
     ethr =  2.50E-08,  avg # of iterations =  3.8

     negative rho (up, down):  9.085E-06 0.000E+00

     total cpu time spent up to now is        5.3 secs

     total energy              =    -689.80643301 Ry
     estimated scf accuracy    <       0.00000334 Ry

     iteration # 10     ecut=    30.00 Ry     beta= 0.30
     Davidson diagonalization with overlap
     ethr =  5.07E-09,  avg # of iterations =  3.3

     negative rho (up, down):  9.221E-06 0.000E+00

     total cpu time spent up to now is        5.8 secs

     total energy              =    -689.80643362 Ry
     estimated scf accuracy    <       0.00000143 Ry

     iteration # 11     ecut=    30.00 Ry     beta= 0.30
     Davidson diagonalization with overlap
     ethr =  2.17E-09,  avg # of iterations =  2.0

     negative rho (up, down):  9.554E-06 0.000E+00

     total cpu time spent up to now is        6.3 secs

     End of self-consistent calculation

          k = 0.0000 0.0000 0.0000 (  4117 PWs)   bands (ev):

    -4.7812  -3.3239  -2.2561  -1.8258  -1.8134  -1.6106  -1.1096  -0.5960
    -0.5085  -0.4854  -0.0243   0.0154   0.0366   0.0430   0.3929   0.4298
     0.5407   0.6191   0.9461   0.9599   1.3325   1.3721   1.4129   1.4985
     1.5974   1.9061   2.0507   2.1276   2.4747   2.5323   2.6429   2.6833
     2.8795   4.0316   6.1583   6.7616   8.3674   8.9120   9.2433  10.1437

     occupation numbers 
     1.0000   1.0000   1.0000   1.0000   1.0000   1.0000   1.0000   1.0000
     1.0000   1.0000   1.0000   1.0000   1.0000   1.0000   1.0000   1.0000
     1.0000   1.0000   1.0000   1.0000   1.0000   1.0000   1.0000   1.0000
     1.0000   1.0000   1.0000   1.0000   1.0000   1.0000   1.0000   1.0000
     1.0000   1.0000   0.0000   0.0000   0.0000   0.0000   0.0000   0.0000

          k = 0.0000 0.3536 0.0000 (  4084 PWs)   bands (ev):

    -3.4665  -2.3702  -1.6765  -1.5696  -1.3579  -1.3341  -1.1254  -0.7246
    -0.6401  -0.6289  -0.4747  -0.0914   0.2357   0.3980   0.4368   0.5281
     0.7603   0.8087   1.0769   1.1875   1.2354   1.3513   1.5062   1.6177
     1.8531   1.9404   2.1420   2.1429   2.1548   2.4243   2.8192   2.8416
     2.9327   4.9691   7.4024   8.8718   9.7757   9.8150   9.9167  10.5978

     occupation numbers 
     1.0000   1.0000   1.0000   1.0000   1.0000   1.0000   1.0000   1.0000
     1.0000   1.0000   1.0000   1.0000   1.0000   1.0000   1.0000   1.0000
     1.0000   1.0000   1.0000   1.0000   1.0000   1.0000   1.0000   1.0000
     1.0000   1.0000   1.0000   1.0000   1.0000   1.0000   1.0000   1.0000
     1.0000   0.0000   0.0000   0.0000   0.0000   0.0000   0.0000   0.0000

          k = 0.0000-0.7071 0.0000 (  4126 PWs)   bands (ev):

    -2.2318  -2.2318  -1.9363  -1.9363  -1.4494  -1.4494  -1.2105  -1.2105
    -0.7032  -0.7032  -0.2126  -0.2126  -0.0070  -0.0070   1.0085   1.0086
     1.1484   1.1484   1.7473   1.7474   2.0518   2.0518   2.4081   2.4081
     2.4502   2.4502   2.6432   2.6432   2.8240   2.8240   4.4388   4.4388
     4.9623   4.9623   5.8860   5.8860   8.4879   8.4880  11.7995  11.7997

     occupation numbers 
     1.0000   1.0000   1.0000   1.0000   1.0000   1.0000   1.0000   1.0000
     1.0000   1.0000   1.0000   1.0000   1.0000   1.0000   1.0000   1.0000
     1.0000   1.0000   1.0000   1.0000   1.0000   1.0000   1.0000   1.0000
     1.0000   1.0000   1.0000   1.0000   1.0000   1.0000   0.9996   0.9996
     0.0000   0.0000   0.0000   0.0000   0.0000   0.0000   0.0000   0.0000

          k = 0.2500 0.0000 0.0000 (  4091 PWs)   bands (ev):

    -4.1214  -3.0039  -2.2237  -2.0988  -1.7133  -1.5347  -1.3536  -0.4432
    -0.2796  -0.2487   0.0522   0.0578   0.1500   0.2238   0.3460   0.3819
     0.4989   0.8452   0.9573   1.0499   1.2446   1.2712   1.4003   1.6084
     1.8487   1.8671   1.9936   2.1182   2.3935   2.5180   2.6327   2.6574
     2.7337   3.7498   4.4913   5.7061   6.6349   7.6128   9.3156   9.5239

     occupation numbers 
     1.0000   1.0000   1.0000   1.0000   1.0000   1.0000   1.0000   1.0000
     1.0000   1.0000   1.0000   1.0000   1.0000   1.0000   1.0000   1.0000
     1.0000   1.0000   1.0000   1.0000   1.0000   1.0000   1.0000   1.0000
     1.0000   1.0000   1.0000   1.0000   1.0000   1.0000   1.0000   1.0000
     1.0000   1.0000   0.9369   0.0000   0.0000   0.0000   0.0000   0.0000

          k = 0.2500 0.3536 0.0000 (  4092 PWs)   bands (ev):

    -3.0020  -1.9656  -1.6122  -1.3939  -1.2391  -0.9957  -0.9128  -0.7361
    -0.6214  -0.4019  -0.3717  -0.0647   0.0887   0.1843   0.4273   0.4769
     0.5623   0.6137   1.0458   1.1213   1.1282   1.2262   1.2577   1.4636
     1.6413   1.7879   2.0017   2.1990   2.5091   2.5230   2.5798   2.6728
     3.7746   5.5785   6.1365   6.7961   8.5216   8.9214  10.4706  10.6723

     occupation numbers 
     1.0000   1.0000   1.0000   1.0000   1.0000   1.0000   1.0000   1.0000
     1.0000   1.0000   1.0000   1.0000   1.0000   1.0000   1.0000   1.0000
     1.0000   1.0000   1.0000   1.0000   1.0000   1.0000   1.0000   1.0000
     1.0000   1.0000   1.0000   1.0000   1.0000   1.0000   1.0000   1.0000
     1.0000   0.0000   0.0000   0.0000   0.0000   0.0000   0.0000   0.0000

          k = 0.2500-0.7071 0.0000 (  4104 PWs)   bands (ev):

    -2.0648  -2.0648  -1.8298  -1.8297  -1.5912  -1.5912  -0.8623  -0.8623
    -0.5518  -0.5518   0.0807   0.0808   0.3275   0.3275   0.5634   0.5634
     1.0506   1.0506   1.3630   1.3631   1.9045   1.9046   1.9854   1.9855
     2.3484   2.3484   2.6928   2.6928   2.7673   2.7674   4.5890   4.5890
     5.7492   5.7492   7.2316   7.2316   8.9019   8.9020   9.7994   9.7994

     occupation numbers 
     1.0000   1.0000   1.0000   1.0000   1.0000   1.0000   1.0000   1.0000
     1.0000   1.0000   1.0000   1.0000   1.0000   1.0000   1.0000   1.0000
     1.0000   1.0000   1.0000   1.0000   1.0000   1.0000   1.0000   1.0000
     1.0000   1.0000   1.0000   1.0000   1.0000   1.0000   0.0318   0.0317
     0.0000   0.0000   0.0000   0.0000   0.0000   0.0000   0.0000   0.0000

          k =-0.5000 0.0000 0.0000 (  4098 PWs)   bands (ev):

    -2.6899  -2.6898  -2.4859  -2.4858  -1.6085  -1.6084  -0.8906  -0.8906
    -0.1700  -0.1700   0.0507   0.0507   0.0879   0.0879   0.4378   0.4378
     0.6621   0.6621   0.8074   0.8074   1.3909   1.3909   1.6931   1.6931
     2.1824   2.1824   2.2681   2.2681   2.5149   2.5149   2.6506   2.6507
     2.6606   2.6606   3.9561   3.9561   5.7703   5.7703   9.8561   9.8563

     occupation numbers 
     1.0000   1.0000   1.0000   1.0000   1.0000   1.0000   1.0000   1.0000
     1.0000   1.0000   1.0000   1.0000   1.0000   1.0000   1.0000   1.0000
     1.0000   1.0000   1.0000   1.0000   1.0000   1.0000   1.0000   1.0000
     1.0000   1.0000   1.0000   1.0000   1.0000   1.0000   1.0000   1.0000
     1.0000   1.0000   1.0000   1.0000   0.0000   0.0000   0.0000   0.0000

          k =-0.5000 0.3536 0.0000 (  4082 PWs)   bands (ev):

    -2.0066  -2.0066  -1.4979  -1.4979  -0.8668  -0.8667  -0.5913  -0.5913
    -0.3366  -0.3366  -0.2023  -0.2023   0.1144   0.1144   0.3042   0.3042
     0.6020   0.6020   0.9072   0.9073   1.0644   1.0645   1.1619   1.1619
     1.6668   1.6669   1.9891   1.9891   2.3244   2.3244   3.0752   3.0752
     4.1654   4.1654   5.7026   5.7026   7.9502   7.9503  10.6866  10.6866

     occupation numbers 
     1.0000   1.0000   1.0000   1.0000   1.0000   1.0000   1.0000   1.0000
     1.0000   1.0000   1.0000   1.0000   1.0000   1.0000   1.0000   1.0000
     1.0000   1.0000   1.0000   1.0000   1.0000   1.0000   1.0000   1.0000
     1.0000   1.0000   1.0000   1.0000   1.0000   1.0000   1.0000   1.0000
     1.0000   1.0000   0.0000   0.0000   0.0000   0.0000   0.0000   0.0000

          k =-0.5000-0.7071 0.0000 (  4136 PWs)   bands (ev):

    -2.3275  -2.3275  -1.3080  -1.3079  -1.1309  -1.1308  -0.5612  -0.5611
    -0.2050  -0.2049  -0.1712  -0.1712   0.0202   0.0202   0.2050   0.2051
     0.9908   0.9909   1.1099   1.1100   1.6199   1.6200   2.1632   2.1632
     2.5467   2.5468   2.6346   2.6346   2.7752   2.7753   4.7924   4.7924
     7.0874   7.0875   7.6938   7.6938   7.8743   7.8744   8.5238   8.5238

     occupation numbers 
     1.0000   1.0000   1.0000   1.0000   1.0000   1.0000   1.0000   1.0000
     1.0000   1.0000   1.0000   1.0000   1.0000   1.0000   1.0000   1.0000
     1.0000   1.0000   1.0000   1.0000   1.0000   1.0000   1.0000   1.0000
     1.0000   1.0000   1.0000   1.0000   1.0000   1.0000   0.0000   0.0000
     0.0000   0.0000   0.0000   0.0000   0.0000   0.0000   0.0000   0.0000

     the Fermi energy is     4.5354 ev

!    total energy              =    -689.80643388 Ry
     estimated scf accuracy    <       0.00000009 Ry
     smearing contrib. (-TS)   =      -0.00014217 Ry
     internal energy E=F+TS    =    -689.80629171 Ry

     The total energy is F=E-TS. E is the sum of the following terms:
     one-electron contribution =   -2151.46998225 Ry
     hartree contribution      =    1132.22328288 Ry
     xc contribution           =    -373.39018871 Ry
     ewald contribution        =     702.83059636 Ry

     convergence has been achieved in  11 iterations

     negative rho (up, down):  9.554E-06 0.000E+00

     Forces acting on atoms (cartesian axes, Ry/au):

     atom    1 type  1   force =     0.00000000    0.00000000   -0.00859454
     atom    2 type  1   force =     0.00000000    0.00000000    0.00938635
     atom    3 type  1   force =     0.00000000    0.00000000    0.02882794
     atom    4 type  1   force =     0.00000000    0.00000000   -0.02885175
     atom    5 type  1   force =     0.00000000    0.00000000   -0.00929647
     atom    6 type  1   force =     0.00000000    0.00000000    0.00852846
     The non-local contrib.  to forces
     atom    1 type  1   force =     0.00000000    0.00000000    0.01288900
     atom    2 type  1   force =     0.00000000    0.00000000   -0.00464321
     atom    3 type  1   force =     0.00000000    0.00000000   -0.02433349
     atom    4 type  1   force =     0.00000000    0.00000000    0.02426818
     atom    5 type  1   force =     0.00000000    0.00000000    0.00461880
     atom    6 type  1   force =     0.00000000    0.00000000   -0.01296016
     The ionic contribution  to forces
     atom    1 type  1   force =    -0.00000000    0.00000000  -90.36765418
     atom    2 type  1   force =     0.00000000    0.00000000  -19.31465894
     atom    3 type  1   force =    -0.00000000    0.00000000   59.21389186
     atom    4 type  1   force =    -0.00000000   -0.00000000  -59.21389186
     atom    5 type  1   force =    -0.00000000   -0.00000000   19.31465894
     atom    6 type  1   force =    -0.00000000   -0.00000000   90.36765418
     The local contribution  to forces
     atom    1 type  1   force =    -0.00000000    0.00000000   90.32135190
     atom    2 type  1   force =     0.00000000   -0.00000000   19.32849321
     atom    3 type  1   force =     0.00000000   -0.00000000  -59.15075710
     atom    4 type  1   force =     0.00000000   -0.00000000   59.15097224
     atom    5 type  1   force =     0.00000000   -0.00000000  -19.32875412
     atom    6 type  1   force =     0.00000000   -0.00000000  -90.32099002
     The core correction contribution to forces
     atom    1 type  1   force =     0.00000000   -0.00000000    0.02538950
     atom    2 type  1   force =    -0.00000000   -0.00000000   -0.00008656
     atom    3 type  1   force =    -0.00000000    0.00000000   -0.00938566
     atom    4 type  1   force =     0.00000000    0.00000000    0.00942398
     atom    5 type  1   force =     0.00000000    0.00000000    0.00011453
     atom    6 type  1   force =     0.00000000    0.00000000   -0.02537269
     The Hubbard contrib.    to forces
     atom    1 type  1   force =     0.00000000    0.00000000    0.00000000
     atom    2 type  1   force =     0.00000000    0.00000000    0.00000000
     atom    3 type  1   force =     0.00000000    0.00000000    0.00000000
     atom    4 type  1   force =     0.00000000    0.00000000    0.00000000
     atom    5 type  1   force =     0.00000000    0.00000000    0.00000000
     atom    6 type  1   force =     0.00000000    0.00000000    0.00000000
     The SCF correction term to forces
     atom    1 type  1   force =    -0.00000000   -0.00000000   -0.00058419
     atom    2 type  1   force =    -0.00000000    0.00000000    0.00026842
     atom    3 type  1   force =     0.00000000    0.00000000   -0.00060111
     atom    4 type  1   force =    -0.00000000    0.00000000    0.00036229
     atom    5 type  1   force =     0.00000000   -0.00000000    0.00005195
     atom    6 type  1   force =    -0.00000000    0.00000000    0.00018372

     Total force =     0.044549     Total SCF correction =     0.000971


     Computing stress (Cartesian axis) and pressure


     negative rho (up, down):  9.554E-06 0.000E+00
          total   stress  (Ry/bohr**3)                   (kbar)     P=       14.47
   0.00018625   0.00000000   0.00000000           27.40        0.00        0.00
   0.00000000  -0.00010639   0.00000000            0.00      -15.65        0.00
   0.00000000   0.00000000   0.00021530            0.00        0.00       31.67

     kinetic stress (kbar)  10042.85      0.00      0.00
                                0.00   9929.89      0.00
                                0.00      0.00  10082.07

     local   stress (kbar)-204823.17     -0.00      0.00
                               -0.00-206858.34      0.00
                                0.00      0.00 230219.19

     nonloc. stress (kbar)  -6304.68      0.00      0.00
                                0.00  -6322.63      0.00
                                0.00      0.00  -6309.25

     hartree stress (kbar) 108282.13     -0.00     -0.00
                               -0.00 109016.09     -0.00
                               -0.00     -0.00-104780.34

     exc-cor stress (kbar)  25855.39     -0.00     -0.00
                               -0.00  25856.04     -0.00
                               -0.00     -0.00  25851.57

     corecor stress (kbar) -29849.63     -0.00     -0.00
                               -0.00 -29836.26      0.00
                               -0.00      0.00 -29853.28

     ewald   stress (kbar)  96824.51      0.00      0.00
                                0.00  98199.57      0.00
                                0.00      0.00-125178.30

     hubbard stress (kbar)      0.00      0.00      0.00
                                0.00      0.00      0.00
                                0.00      0.00      0.00

     DFT-D   stress (kbar)      0.00      0.00      0.00
                                0.00      0.00      0.00
                                0.00      0.00      0.00

     XDM     stress (kbar)      0.00      0.00      0.00
                                0.00      0.00      0.00
                                0.00      0.00      0.00

     dft-nl  stress (kbar)      0.00      0.00      0.00
                                0.00      0.00      0.00
                                0.00      0.00      0.00

     TS-vdW  stress (kbar)      0.00      0.00      0.00
                                0.00      0.00      0.00
                                0.00      0.00      0.00



     BFGS Geometry Optimization
     Energy error            =      0.0E+00
     Gradient error          =      2.9E-02

     number of scf cycles    =   1
     number of bfgs steps    =   0

     energy   new            =    -689.8064338810 Ry

     new trust radius        =       0.0288517451 bohr
     new conv_thr            =       0.0000010000 Ry


ATOMIC_POSITIONS (angstrom)
Au            0.0000000000        0.0000000000       -0.0045480347
Au            0.0000000000        0.0000000000        2.8887270436
Au            0.0000000000        0.0000000000        5.7827750871
Au            2.0391250000        1.4418800000        1.4266123140
Au            2.0391250000        1.4418800000        4.3207205219
Au            2.0391250000        1.4418800000        7.2139130681



     Writing output data file ./surface.save/
     NEW-OLD atomic charge density approx. for the potential

     Check: negative core charge=   -0.000003

     negative rho (up, down):  9.534E-06 0.000E+00

     total cpu time spent up to now is        7.9 secs

     Self-consistent Calculation

     iteration #  1     ecut=    30.00 Ry     beta= 0.30
     Davidson diagonalization with overlap
     ethr =  1.00E-06,  avg # of iterations =  8.6

     Threshold (ethr) on eigenvalues was too large:
     Diagonalizing with lowered threshold

     Davidson diagonalization with overlap
     ethr =  6.16E-08,  avg # of iterations =  4.4

     negative rho (up, down):  9.556E-06 0.000E+00

     total cpu time spent up to now is        9.5 secs

     total energy              =    -689.80832465 Ry
     estimated scf accuracy    <       0.00005328 Ry

     iteration #  2     ecut=    30.00 Ry     beta= 0.30
     Davidson diagonalization with overlap
     ethr =  8.07E-08,  avg # of iterations =  2.0

     negative rho (up, down):  9.578E-06 0.000E+00

     total cpu time spent up to now is        9.9 secs

     total energy              =    -689.80832300 Ry
     estimated scf accuracy    <       0.00007474 Ry

     iteration #  3     ecut=    30.00 Ry     beta= 0.30
     Davidson diagonalization with overlap
     ethr =  8.07E-08,  avg # of iterations =  1.4

     negative rho (up, down):  9.621E-06 0.000E+00

     total cpu time spent up to now is       10.3 secs

     total energy              =    -689.80833006 Ry
     estimated scf accuracy    <       0.00001464 Ry

     iteration #  4     ecut=    30.00 Ry     beta= 0.30
     Davidson diagonalization with overlap
     ethr =  2.22E-08,  avg # of iterations =  1.8

     negative rho (up, down):  9.649E-06 0.000E+00

     total cpu time spent up to now is       10.8 secs

     total energy              =    -689.80833001 Ry
     estimated scf accuracy    <       0.00002163 Ry

     iteration #  5     ecut=    30.00 Ry     beta= 0.30
     Davidson diagonalization with overlap
     ethr =  2.22E-08,  avg # of iterations =  1.0

     negative rho (up, down):  9.683E-06 0.000E+00

     total cpu time spent up to now is       11.2 secs

     total energy              =    -689.80833153 Ry
     estimated scf accuracy    <       0.00000223 Ry

     iteration #  6     ecut=    30.00 Ry     beta= 0.30
     Davidson diagonalization with overlap
     ethr =  3.37E-09,  avg # of iterations =  1.3

     negative rho (up, down):  9.751E-06 0.000E+00

     total cpu time spent up to now is       11.6 secs

     End of self-consistent calculation

          k = 0.0000 0.0000 0.0000 (  4117 PWs)   bands (ev):

    -4.7587  -3.3150  -2.2405  -1.8287  -1.8043  -1.6120  -1.1253  -0.5868
    -0.4914  -0.4803  -0.0211   0.0084   0.0416   0.0607   0.3979   0.4381
     0.5431   0.6312   0.9604   0.9694   1.2991   1.3710   1.4110   1.5088
     1.6015   1.9113   2.0575   2.1239   2.4669   2.5239   2.6451   2.6741
     2.8749   4.0014   6.1524   6.7693   8.3499   8.9085   9.2317  10.1415

     occupation numbers 
     1.0000   1.0000   1.0000   1.0000   1.0000   1.0000   1.0000   1.0000
     1.0000   1.0000   1.0000   1.0000   1.0000   1.0000   1.0000   1.0000
     1.0000   1.0000   1.0000   1.0000   1.0000   1.0000   1.0000   1.0000
     1.0000   1.0000   1.0000   1.0000   1.0000   1.0000   1.0000   1.0000
     1.0000   1.0000   0.0000   0.0000   0.0000   0.0000   0.0000   0.0000

          k = 0.0000 0.3536 0.0000 (  4084 PWs)   bands (ev):

    -3.4432  -2.3540  -1.6648  -1.5480  -1.3311  -1.3254  -1.1075  -0.7057
    -0.6443  -0.6368  -0.4727  -0.0913   0.2198   0.3751   0.4237   0.5470
     0.7557   0.8046   1.0838   1.1912   1.2273   1.3550   1.4906   1.6161
     1.8572   1.9349   2.1392   2.1563   2.1627   2.4110   2.8191   2.8386
     2.9250   4.9595   7.3937   8.8685   9.7781   9.8086   9.9148  10.5979

     occupation numbers 
     1.0000   1.0000   1.0000   1.0000   1.0000   1.0000   1.0000   1.0000
     1.0000   1.0000   1.0000   1.0000   1.0000   1.0000   1.0000   1.0000
     1.0000   1.0000   1.0000   1.0000   1.0000   1.0000   1.0000   1.0000
     1.0000   1.0000   1.0000   1.0000   1.0000   1.0000   1.0000   1.0000
     1.0000   0.0000   0.0000   0.0000   0.0000   0.0000   0.0000   0.0000

          k = 0.0000-0.7071 0.0000 (  4126 PWs)   bands (ev):

    -2.2119  -2.2119  -1.9175  -1.9174  -1.4362  -1.4361  -1.1975  -1.1975
    -0.6757  -0.6757  -0.2349  -0.2347  -0.0304  -0.0303   1.0134   1.0139
     1.1574   1.1575   1.7471   1.7471   2.0495   2.0498   2.4102   2.4104
     2.4395   2.4395   2.6339   2.6339   2.8210   2.8211   4.4418   4.4418
     4.9599   4.9601   5.8704   5.8705   8.4980   8.4984  11.7793  11.7795

     occupation numbers 
     1.0000   1.0000   1.0000   1.0000   1.0000   1.0000   1.0000   1.0000
     1.0000   1.0000   1.0000   1.0000   1.0000   1.0000   1.0000   1.0000
     1.0000   1.0000   1.0000   1.0000   1.0000   1.0000   1.0000   1.0000
     1.0000   1.0000   1.0000   1.0000   1.0000   1.0000   0.9991   0.9991
     0.0000   0.0000   0.0000   0.0000   0.0000   0.0000   0.0000   0.0000

          k = 0.2500 0.0000 0.0000 (  4091 PWs)   bands (ev):

    -4.0997  -2.9908  -2.2225  -2.0856  -1.6988  -1.5365  -1.3495  -0.4321
    -0.2699  -0.2583   0.0555   0.0564   0.1621   0.2463   0.3486   0.3887
     0.5069   0.8409   0.9515   1.0406   1.2481   1.2735   1.3924   1.6025
     1.8553   1.8703   1.9822   2.1134   2.3875   2.5282   2.6284   2.6494
     2.7349   3.7463   4.4796   5.6938   6.6395   7.5915   9.3001   9.5241

     occupation numbers 
     1.0000   1.0000   1.0000   1.0000   1.0000   1.0000   1.0000   1.0000
     1.0000   1.0000   1.0000   1.0000   1.0000   1.0000   1.0000   1.0000
     1.0000   1.0000   1.0000   1.0000   1.0000   1.0000   1.0000   1.0000
     1.0000   1.0000   1.0000   1.0000   1.0000   1.0000   1.0000   1.0000
     1.0000   1.0000   0.9650   0.0000   0.0000   0.0000   0.0000   0.0000

          k = 0.2500 0.3536 0.0000 (  4092 PWs)   bands (ev):

    -2.9784  -1.9502  -1.5928  -1.3732  -1.2181  -0.9797  -0.9035  -0.7213
    -0.6139  -0.3956  -0.3758  -0.0658   0.0751   0.1657   0.4168   0.4760
     0.5728   0.6039   1.0433   1.1181   1.1352   1.2247   1.2457   1.4661
     1.6516   1.7923   2.0045   2.1981   2.5018   2.5075   2.5758   2.6710
     3.7635   5.5810   6.1301   6.7844   8.5216   8.9102  10.4595  10.6752

     occupation numbers 
     1.0000   1.0000   1.0000   1.0000   1.0000   1.0000   1.0000   1.0000
     1.0000   1.0000   1.0000   1.0000   1.0000   1.0000   1.0000   1.0000
     1.0000   1.0000   1.0000   1.0000   1.0000   1.0000   1.0000   1.0000
     1.0000   1.0000   1.0000   1.0000   1.0000   1.0000   1.0000   1.0000
     1.0000   0.0000   0.0000   0.0000   0.0000   0.0000   0.0000   0.0000

          k = 0.2500-0.7071 0.0000 (  4104 PWs)   bands (ev):

    -2.0451  -2.0451  -1.8055  -1.8055  -1.5817  -1.5816  -0.8594  -0.8593
    -0.5483  -0.5481   0.0662   0.0662   0.3320   0.3321   0.5756   0.5757
     1.0464   1.0465   1.3702   1.3706   1.8960   1.8962   1.9871   1.9873
     2.3424   2.3425   2.6918   2.6919   2.7603   2.7603   4.5924   4.5925
     5.7430   5.7431   7.2180   7.2181   8.9000   8.9003   9.7957   9.7957

     occupation numbers 
     1.0000   1.0000   1.0000   1.0000   1.0000   1.0000   1.0000   1.0000
     1.0000   1.0000   1.0000   1.0000   1.0000   1.0000   1.0000   1.0000
     1.0000   1.0000   1.0000   1.0000   1.0000   1.0000   1.0000   1.0000
     1.0000   1.0000   1.0000   1.0000   1.0000   1.0000   0.0180   0.0179
     0.0000   0.0000   0.0000   0.0000   0.0000   0.0000   0.0000   0.0000

          k =-0.5000 0.0000 0.0000 (  4098 PWs)   bands (ev):

    -2.6722  -2.6720  -2.4725  -2.4723  -1.6057  -1.6054  -0.8805  -0.8805
    -0.1655  -0.1655   0.0663   0.0663   0.0963   0.0963   0.4439   0.4442
     0.6715   0.6715   0.7851   0.7852   1.3724   1.3725   1.7017   1.7018
     2.1814   2.1814   2.2577   2.2577   2.5192   2.5192   2.6504   2.6505
     2.6584   2.6585   3.9281   3.9282   5.7847   5.7849   9.8321   9.8324

     occupation numbers 
     1.0000   1.0000   1.0000   1.0000   1.0000   1.0000   1.0000   1.0000
     1.0000   1.0000   1.0000   1.0000   1.0000   1.0000   1.0000   1.0000
     1.0000   1.0000   1.0000   1.0000   1.0000   1.0000   1.0000   1.0000
     1.0000   1.0000   1.0000   1.0000   1.0000   1.0000   1.0000   1.0000
     1.0000   1.0000   1.0000   1.0000   0.0000   0.0000   0.0000   0.0000

          k =-0.5000 0.3536 0.0000 (  4082 PWs)   bands (ev):

    -1.9836  -1.9836  -1.4809  -1.4808  -0.8559  -0.8557  -0.5742  -0.5741
    -0.3297  -0.3297  -0.1878  -0.1878   0.0973   0.0974   0.3047   0.3047
     0.5952   0.5953   0.9159   0.9159   1.0583   1.0588   1.1477   1.1478
     1.6729   1.6731   1.9857   1.9858   2.3122   2.3123   3.0742   3.0742
     4.1618   4.1618   5.6894   5.6894   7.9489   7.9489  10.6704  10.6706

     occupation numbers 
     1.0000   1.0000   1.0000   1.0000   1.0000   1.0000   1.0000   1.0000
     1.0000   1.0000   1.0000   1.0000   1.0000   1.0000   1.0000   1.0000
     1.0000   1.0000   1.0000   1.0000   1.0000   1.0000   1.0000   1.0000
     1.0000   1.0000   1.0000   1.0000   1.0000   1.0000   1.0000   1.0000
     1.0000   1.0000   0.0000   0.0000   0.0000   0.0000   0.0000   0.0000

          k =-0.5000-0.7071 0.0000 (  4136 PWs)   bands (ev):

    -2.3060  -2.3060  -1.2987  -1.2986  -1.1148  -1.1146  -0.5579  -0.5575
    -0.2275  -0.2272  -0.1675  -0.1673   0.0280   0.0283   0.2295   0.2296
     0.9918   0.9920   1.1219   1.1223   1.6112   1.6114   2.1538   2.1539
     2.5461   2.5462   2.6344   2.6344   2.7657   2.7660   4.7980   4.7980
     7.0759   7.0760   7.6901   7.6902   7.8770   7.8774   8.5094   8.5095

     occupation numbers 
     1.0000   1.0000   1.0000   1.0000   1.0000   1.0000   1.0000   1.0000
     1.0000   1.0000   1.0000   1.0000   1.0000   1.0000   1.0000   1.0000
     1.0000   1.0000   1.0000   1.0000   1.0000   1.0000   1.0000   1.0000
     1.0000   1.0000   1.0000   1.0000   1.0000   1.0000   0.0000   0.0000
     0.0000   0.0000   0.0000   0.0000   0.0000   0.0000   0.0000   0.0000

     the Fermi energy is     4.5319 ev

!    total energy              =    -689.80833163 Ry
     estimated scf accuracy    <       0.00000025 Ry
     smearing contrib. (-TS)   =      -0.00008946 Ry
     internal energy E=F+TS    =    -689.80824217 Ry

     The total energy is F=E-TS. E is the sum of the following terms:
     one-electron contribution =   -2142.29227468 Ry
     hartree contribution      =    1127.63480918 Ry
     xc contribution           =    -373.38102914 Ry
     ewald contribution        =     698.23025247 Ry

     convergence has been achieved in   6 iterations

     negative rho (up, down):  9.751E-06 0.000E+00

     Forces acting on atoms (cartesian axes, Ry/au):

     atom    1 type  1   force =     0.00000000    0.00000000   -0.00851909
     atom    2 type  1   force =     0.00000000    0.00000000    0.00760724
     atom    3 type  1   force =     0.00000000    0.00000000    0.02623438
     atom    4 type  1   force =     0.00000000    0.00000000   -0.02630330
     atom    5 type  1   force =     0.00000000    0.00000000   -0.00736670
     atom    6 type  1   force =     0.00000000    0.00000000    0.00834747
     The non-local contrib.  to forces
     atom    1 type  1   force =     0.00000000    0.00000000    0.01266978
     atom    2 type  1   force =     0.00000000    0.00000000   -0.00494498
     atom    3 type  1   force =     0.00000000    0.00000000   -0.02467516
     atom    4 type  1   force =     0.00000000    0.00000000    0.02466262
     atom    5 type  1   force =     0.00000000    0.00000000    0.00506599
     atom    6 type  1   force =     0.00000000    0.00000000   -0.01287475
     The ionic contribution  to forces
     atom    1 type  1   force =    -0.00000000    0.00000000  -90.13213996
     atom    2 type  1   force =    -0.00000000    0.00000000  -19.11804445
     atom    3 type  1   force =    -0.00000000    0.00000000   59.16334621
     atom    4 type  1   force =    -0.00000000   -0.00000000  -59.16332019
     atom    5 type  1   force =    -0.00000000   -0.00000000   19.11730293
     atom    6 type  1   force =    -0.00000000   -0.00000000   90.13285546
     The local contribution  to forces
     atom    1 type  1   force =     0.00000000    0.00000000   90.08555806
     atom    2 type  1   force =     0.00000000   -0.00000000   19.13006280
     atom    3 type  1   force =     0.00000000   -0.00000000  -59.10256503
     atom    4 type  1   force =     0.00000000   -0.00000000   59.10310965
     atom    5 type  1   force =     0.00000000   -0.00000000  -19.13003132
     atom    6 type  1   force =     0.00000000   -0.00000000  -90.08523232
     The core correction contribution to forces
     atom    1 type  1   force =     0.00000000    0.00000000    0.02557936
     atom    2 type  1   force =    -0.00000000    0.00000000    0.00037278
     atom    3 type  1   force =     0.00000000   -0.00000000   -0.00880659
     atom    4 type  1   force =     0.00000000    0.00000000    0.00881678
     atom    5 type  1   force =     0.00000000    0.00000000   -0.00035579
     atom    6 type  1   force =     0.00000000    0.00000000   -0.02555319
     The Hubbard contrib.    to forces
     atom    1 type  1   force =     0.00000000    0.00000000    0.00000000
     atom    2 type  1   force =     0.00000000    0.00000000    0.00000000
     atom    3 type  1   force =     0.00000000    0.00000000    0.00000000
     atom    4 type  1   force =     0.00000000    0.00000000    0.00000000
     atom    5 type  1   force =     0.00000000    0.00000000    0.00000000
     atom    6 type  1   force =     0.00000000    0.00000000    0.00000000
     The SCF correction term to forces
     atom    1 type  1   force =    -0.00000000    0.00000000   -0.00020468
     atom    2 type  1   force =     0.00000000   -0.00000000    0.00014275
     atom    3 type  1   force =    -0.00000000    0.00000000   -0.00108339
     atom    4 type  1   force =    -0.00000000    0.00000000    0.00040949
     atom    5 type  1   force =    -0.00000000    0.00000000    0.00063316
     atom    6 type  1   force =    -0.00000000    0.00000000   -0.00086609

     Total force =     0.040429     Total SCF correction =     0.001598


     Computing stress (Cartesian axis) and pressure


     negative rho (up, down):  9.751E-06 0.000E+00
          total   stress  (Ry/bohr**3)                   (kbar)     P=       12.93
   0.00017838   0.00000000   0.00000000           26.24        0.00        0.00
   0.00000000  -0.00011776   0.00000000            0.00      -17.32        0.00
   0.00000000   0.00000000   0.00020317            0.00        0.00       29.89

     kinetic stress (kbar)  10041.58      0.00      0.00
                                0.00   9927.51      0.00
                                0.00      0.00  10083.44

     local   stress (kbar)-203923.83      0.00      0.00
                                0.00-205949.89      0.00
                                0.00      0.00 229322.73

     nonloc. stress (kbar)  -6305.05      0.00      0.00
                                0.00  -6323.37      0.00
                                0.00      0.00  -6309.56

     hartree stress (kbar) 107832.71     -0.00     -0.00
                               -0.00 108561.85     -0.00
                               -0.00     -0.00-104332.67

     exc-cor stress (kbar)  25855.62     -0.00      0.00
                               -0.00  25856.25     -0.00
                                0.00     -0.00  25851.70

     corecor stress (kbar) -29849.45      0.00      0.00
                                0.00 -29835.99      0.00
                                0.00      0.00 -29853.37

     ewald   stress (kbar)  96374.67      0.00      0.00
                                0.00  97746.32      0.00
                                0.00      0.00-124732.38

     hubbard stress (kbar)      0.00      0.00      0.00
                                0.00      0.00      0.00
                                0.00      0.00      0.00

     DFT-D   stress (kbar)      0.00      0.00      0.00
                                0.00      0.00      0.00
                                0.00      0.00      0.00

     XDM     stress (kbar)      0.00      0.00      0.00
                                0.00      0.00      0.00
                                0.00      0.00      0.00

     dft-nl  stress (kbar)      0.00      0.00      0.00
                                0.00      0.00      0.00
                                0.00      0.00      0.00

     TS-vdW  stress (kbar)      0.00      0.00      0.00
                                0.00      0.00      0.00
                                0.00      0.00      0.00


     Energy error            =      1.9E-03
     Gradient error          =      2.6E-02

     number of scf cycles    =   2
     number of bfgs steps    =   1

     energy   old            =    -689.8064338810 Ry
     energy   new            =    -689.8083316271 Ry

     CASE: energy  _new < energy  _old


     WARNING: bfgs curvature condition failed, Theta= 0.882
     new trust radius        =       0.0317369196 bohr
     new conv_thr            =       0.0000001898 Ry


ATOMIC_POSITIONS (angstrom)
Au            0.0000000000        0.0000000000       -0.0098946523
Au            0.0000000000        0.0000000000        2.8937130962
Au            0.0000000000        0.0000000000        5.7995319424
Au            2.0391250000        1.4418800000        1.4098178594
Au            2.0391250000        1.4418800000        4.3158665380
Au            2.0391250000        1.4418800000        7.2191652163



     Writing output data file ./surface.save/
     NEW-OLD atomic charge density approx. for the potential

     Check: negative core charge=   -0.000003

     negative rho (up, down):  9.668E-06 0.000E+00

     total cpu time spent up to now is       12.9 secs

     Self-consistent Calculation

     iteration #  1     ecut=    30.00 Ry     beta= 0.30
     Davidson diagonalization with overlap
     ethr =  1.00E-06,  avg # of iterations =  8.8

     Threshold (ethr) on eigenvalues was too large:
     Diagonalizing with lowered threshold

     Davidson diagonalization with overlap
     ethr =  7.96E-08,  avg # of iterations =  3.8

     negative rho (up, down):  9.666E-06 0.000E+00

     total cpu time spent up to now is       14.5 secs

     total energy              =    -689.81017783 Ry
     estimated scf accuracy    <       0.00007263 Ry

     iteration #  2     ecut=    30.00 Ry     beta= 0.30
     Davidson diagonalization with overlap
     ethr =  1.10E-07,  avg # of iterations =  2.0

     negative rho (up, down):  9.673E-06 0.000E+00

     total cpu time spent up to now is       14.9 secs

     total energy              =    -689.81017674 Ry
     estimated scf accuracy    <       0.00012249 Ry

     iteration #  3     ecut=    30.00 Ry     beta= 0.30
     Davidson diagonalization with overlap
     ethr =  1.10E-07,  avg # of iterations =  1.7

     negative rho (up, down):  9.707E-06 0.000E+00

     total cpu time spent up to now is       15.4 secs

     total energy              =    -689.81018805 Ry
     estimated scf accuracy    <       0.00001615 Ry

     iteration #  4     ecut=    30.00 Ry     beta= 0.30
     Davidson diagonalization with overlap
     ethr =  2.45E-08,  avg # of iterations =  1.8

     negative rho (up, down):  9.738E-06 0.000E+00

     total cpu time spent up to now is       15.8 secs

     total energy              =    -689.81018636 Ry
     estimated scf accuracy    <       0.00006081 Ry

     iteration #  5     ecut=    30.00 Ry     beta= 0.30
     Davidson diagonalization with overlap
     ethr =  2.45E-08,  avg # of iterations =  1.1

     negative rho (up, down):  9.765E-06 0.000E+00

     total cpu time spent up to now is       16.2 secs

     total energy              =    -689.81019003 Ry
     estimated scf accuracy    <       0.00000257 Ry

     iteration #  6     ecut=    30.00 Ry     beta= 0.30
     Davidson diagonalization with overlap
     ethr =  3.90E-09,  avg # of iterations =  1.8

     negative rho (up, down):  9.791E-06 0.000E+00

     total cpu time spent up to now is       16.6 secs

     total energy              =    -689.81019022 Ry
     estimated scf accuracy    <       0.00000050 Ry

     iteration #  7     ecut=    30.00 Ry     beta= 0.30
     Davidson diagonalization with overlap
     ethr =  7.59E-10,  avg # of iterations =  2.2

     negative rho (up, down):  9.833E-06 0.000E+00

     total cpu time spent up to now is       17.1 secs

     End of self-consistent calculation

          k = 0.0000 0.0000 0.0000 (  4117 PWs)   bands (ev):

    -4.7307  -3.3038  -2.2205  -1.8437  -1.7770  -1.6108  -1.1397  -0.5745
    -0.4711  -0.4704  -0.0140   0.0042   0.0500   0.0823   0.4060   0.4487
     0.5477   0.6441   0.9787   0.9834   1.2665   1.3730   1.4108   1.5220
     1.6078   1.9176   2.0688   2.1219   2.4606   2.5156   2.6504   2.6658
     2.8731   3.9698   6.1457   6.7805   8.3327   8.9035   9.2203  10.1403

     occupation numbers 
     1.0000   1.0000   1.0000   1.0000   1.0000   1.0000   1.0000   1.0000
     1.0000   1.0000   1.0000   1.0000   1.0000   1.0000   1.0000   1.0000
     1.0000   1.0000   1.0000   1.0000   1.0000   1.0000   1.0000   1.0000
     1.0000   1.0000   1.0000   1.0000   1.0000   1.0000   1.0000   1.0000
     1.0000   1.0000   0.0000   0.0000   0.0000   0.0000   0.0000   0.0000

          k = 0.0000 0.3536 0.0000 (  4084 PWs)   bands (ev):

    -3.4142  -2.3345  -1.6495  -1.5212  -1.3119  -1.2995  -1.0845  -0.6839
    -0.6472  -0.6432  -0.4684  -0.0888   0.2049   0.3534   0.4124   0.5688
     0.7531   0.8030   1.0940   1.1973   1.2205   1.3613   1.4773   1.6169
     1.8650   1.9309   2.1386   2.1729   2.1734   2.3994   2.8214   2.8376
     2.9181   4.9507   7.3848   8.8676   9.7840   9.8027   9.9125  10.5990

     occupation numbers 
     1.0000   1.0000   1.0000   1.0000   1.0000   1.0000   1.0000   1.0000
     1.0000   1.0000   1.0000   1.0000   1.0000   1.0000   1.0000   1.0000
     1.0000   1.0000   1.0000   1.0000   1.0000   1.0000   1.0000   1.0000
     1.0000   1.0000   1.0000   1.0000   1.0000   1.0000   1.0000   1.0000
     1.0000   0.0000   0.0000   0.0000   0.0000   0.0000   0.0000   0.0000

          k = 0.0000-0.7071 0.0000 (  4126 PWs)   bands (ev):

    -2.1869  -2.1869  -1.8937  -1.8937  -1.4194  -1.4192  -1.1820  -1.1818
    -0.6441  -0.6440  -0.2564  -0.2563  -0.0524  -0.0524   1.0195   1.0196
     1.1714   1.1715   1.7497   1.7498   2.0492   2.0493   2.4147   2.4148
     2.4301   2.4302   2.6264   2.6264   2.8201   2.8201   4.4484   4.4484
     4.9599   4.9600   5.8567   5.8567   8.5101   8.5103  11.7575  11.7579

     occupation numbers 
     1.0000   1.0000   1.0000   1.0000   1.0000   1.0000   1.0000   1.0000
     1.0000   1.0000   1.0000   1.0000   1.0000   1.0000   1.0000   1.0000
     1.0000   1.0000   1.0000   1.0000   1.0000   1.0000   1.0000   1.0000
     1.0000   1.0000   1.0000   1.0000   1.0000   1.0000   0.9978   0.9978
     0.0000   0.0000   0.0000   0.0000   0.0000   0.0000   0.0000   0.0000

          k = 0.2500 0.0000 0.0000 (  4091 PWs)   bands (ev):

    -4.0725  -2.9747  -2.2182  -2.0680  -1.6815  -1.5367  -1.3414  -0.4198
    -0.2655  -0.2567   0.0575   0.0639   0.1786   0.2727   0.3539   0.3986
     0.5175   0.8386   0.9478   1.0334   1.2539   1.2783   1.3864   1.5970
     1.8637   1.8777   1.9734   2.1110   2.3834   2.5415   2.6267   2.6422
     2.7389   3.7453   4.4682   5.6822   6.6445   7.5710   9.2832   9.5230

     occupation numbers 
     1.0000   1.0000   1.0000   1.0000   1.0000   1.0000   1.0000   1.0000
     1.0000   1.0000   1.0000   1.0000   1.0000   1.0000   1.0000   1.0000
     1.0000   1.0000   1.0000   1.0000   1.0000   1.0000   1.0000   1.0000
     1.0000   1.0000   1.0000   1.0000   1.0000   1.0000   1.0000   1.0000
     1.0000   1.0000   0.9848   0.0000   0.0000   0.0000   0.0000   0.0000

          k = 0.2500 0.3536 0.0000 (  4092 PWs)   bands (ev):

    -2.9492  -1.9310  -1.5688  -1.3477  -1.1923  -0.9591  -0.8903  -0.7037
    -0.6036  -0.3872  -0.3777  -0.0640   0.0634   0.1480   0.4082   0.4702
     0.5937   0.5960   1.0417   1.1163   1.1462   1.2262   1.2364   1.4708
     1.6644   1.7996   2.0099   2.1992   2.4935   2.4957   2.5735   2.6712
     3.7534   5.5854   6.1255   6.7738   8.5224   8.9003  10.4482  10.6806

     occupation numbers 
     1.0000   1.0000   1.0000   1.0000   1.0000   1.0000   1.0000   1.0000
     1.0000   1.0000   1.0000   1.0000   1.0000   1.0000   1.0000   1.0000
     1.0000   1.0000   1.0000   1.0000   1.0000   1.0000   1.0000   1.0000
     1.0000   1.0000   1.0000   1.0000   1.0000   1.0000   1.0000   1.0000
     1.0000   0.0000   0.0000   0.0000   0.0000   0.0000   0.0000   0.0000

          k = 0.2500-0.7071 0.0000 (  4104 PWs)   bands (ev):

    -2.0202  -2.0201  -1.7769  -1.7767  -1.5684  -1.5681  -0.8546  -0.8545
    -0.5426  -0.5423   0.0522   0.0522   0.3409   0.3410   0.5908   0.5911
     1.0450   1.0451   1.3802   1.3803   1.8872   1.8872   1.9934   1.9934
     2.3383   2.3383   2.6929   2.6929   2.7555   2.7555   4.5992   4.5993
     5.7383   5.7383   7.2052   7.2053   8.8993   8.8995   9.7954   9.7954

     occupation numbers 
     1.0000   1.0000   1.0000   1.0000   1.0000   1.0000   1.0000   1.0000
     1.0000   1.0000   1.0000   1.0000   1.0000   1.0000   1.0000   1.0000
     1.0000   1.0000   1.0000   1.0000   1.0000   1.0000   1.0000   1.0000
     1.0000   1.0000   1.0000   1.0000   1.0000   1.0000   0.0087   0.0087
     0.0000   0.0000   0.0000   0.0000   0.0000   0.0000   0.0000   0.0000

          k =-0.5000 0.0000 0.0000 (  4098 PWs)   bands (ev):

    -2.6491  -2.6488  -2.4553  -2.4548  -1.6018  -1.6014  -0.8663  -0.8663
    -0.1577  -0.1577   0.0865   0.0866   0.1071   0.1073   0.4530   0.4532
     0.6833   0.6835   0.7641   0.7642   1.3552   1.3553   1.7140   1.7141
     2.1833   2.1834   2.2478   2.2479   2.5256   2.5257   2.6530   2.6531
     2.6589   2.6589   3.9006   3.9007   5.8014   5.8016   9.8049   9.8056

     occupation numbers 
     1.0000   1.0000   1.0000   1.0000   1.0000   1.0000   1.0000   1.0000
     1.0000   1.0000   1.0000   1.0000   1.0000   1.0000   1.0000   1.0000
     1.0000   1.0000   1.0000   1.0000   1.0000   1.0000   1.0000   1.0000
     1.0000   1.0000   1.0000   1.0000   1.0000   1.0000   1.0000   1.0000
     1.0000   1.0000   1.0000   1.0000   0.0000   0.0000   0.0000   0.0000

          k =-0.5000 0.3536 0.0000 (  4082 PWs)   bands (ev):

    -1.9551  -1.9550  -1.4595  -1.4593  -0.8421  -0.8418  -0.5525  -0.5523
    -0.3204  -0.3202  -0.1702  -0.1699   0.0821   0.0821   0.3064   0.3066
     0.5924   0.5924   0.9273   0.9274   1.0541   1.0542   1.1350   1.1352
     1.6818   1.6818   1.9845   1.9845   2.3015   2.3016   3.0757   3.0757
     4.1597   4.1597   5.6766   5.6767   7.9490   7.9491  10.6526  10.6532

     occupation numbers 
     1.0000   1.0000   1.0000   1.0000   1.0000   1.0000   1.0000   1.0000
     1.0000   1.0000   1.0000   1.0000   1.0000   1.0000   1.0000   1.0000
     1.0000   1.0000   1.0000   1.0000   1.0000   1.0000   1.0000   1.0000
     1.0000   1.0000   1.0000   1.0000   1.0000   1.0000   1.0000   1.0000
     1.0000   1.0000   0.0000   0.0000   0.0000   0.0000   0.0000   0.0000

          k =-0.5000-0.7071 0.0000 (  4136 PWs)   bands (ev):

    -2.2792  -2.2792  -1.2871  -1.2870  -1.0940  -1.0939  -0.5509  -0.5508
    -0.2495  -0.2494  -0.1605  -0.1604   0.0396   0.0397   0.2584   0.2584
     0.9950   0.9951   1.1369   1.1370   1.6050   1.6051   2.1450   2.1451
     2.5485   2.5487   2.6366   2.6367   2.7581   2.7582   4.8068   4.8068
     7.0648   7.0648   7.6894   7.6894   7.8824   7.8825   8.4963   8.4963

     occupation numbers 
     1.0000   1.0000   1.0000   1.0000   1.0000   1.0000   1.0000   1.0000
     1.0000   1.0000   1.0000   1.0000   1.0000   1.0000   1.0000   1.0000
     1.0000   1.0000   1.0000   1.0000   1.0000   1.0000   1.0000   1.0000
     1.0000   1.0000   1.0000   1.0000   1.0000   1.0000   0.0000   0.0000
     0.0000   0.0000   0.0000   0.0000   0.0000   0.0000   0.0000   0.0000

     the Fermi energy is     4.5306 ev

!    total energy              =    -689.81019027 Ry
     estimated scf accuracy    <       0.00000007 Ry
     smearing contrib. (-TS)   =      -0.00004909 Ry
     internal energy E=F+TS    =    -689.81014117 Ry

     The total energy is F=E-TS. E is the sum of the following terms:
     one-electron contribution =   -2131.93110280 Ry
     hartree contribution      =    1122.46005290 Ry
     xc contribution           =    -373.37131580 Ry
     ewald contribution        =     693.03222453 Ry

     convergence has been achieved in   7 iterations

     negative rho (up, down):  9.833E-06 0.000E+00

     Forces acting on atoms (cartesian axes, Ry/au):

     atom    1 type  1   force =     0.00000000    0.00000000   -0.00798770
     atom    2 type  1   force =     0.00000000    0.00000000    0.00577567
     atom    3 type  1   force =     0.00000000    0.00000000    0.02315014
     atom    4 type  1   force =     0.00000000    0.00000000   -0.02314220
     atom    5 type  1   force =     0.00000000    0.00000000   -0.00584756
     atom    6 type  1   force =     0.00000000    0.00000000    0.00805166
     The non-local contrib.  to forces
     atom    1 type  1   force =     0.00000000    0.00000000    0.01304212
     atom    2 type  1   force =     0.00000000    0.00000000   -0.00548439
     atom    3 type  1   force =     0.00000000    0.00000000   -0.02599848
     atom    4 type  1   force =     0.00000000    0.00000000    0.02602197
     atom    5 type  1   force =     0.00000000    0.00000000    0.00550503
     atom    6 type  1   force =     0.00000000    0.00000000   -0.01305258
     The ionic contribution  to forces
     atom    1 type  1   force =    -0.00000000    0.00000000  -89.86783594
     atom    2 type  1   force =    -0.00000000   -0.00000000  -18.90973071
     atom    3 type  1   force =    -0.00000000   -0.00000000   59.09464367
     atom    4 type  1   force =    -0.00000000   -0.00000000  -59.09450022
     atom    5 type  1   force =    -0.00000000   -0.00000000   18.90691663
     atom    6 type  1   force =    -0.00000000   -0.00000000   89.87050658
     The local contribution  to forces
     atom    1 type  1   force =     0.00000000    0.00000000   89.82054510
     atom    2 type  1   force =     0.00000000    0.00000000   18.92034668
     atom    3 type  1   force =     0.00000000   -0.00000000  -59.03674406
     atom    4 type  1   force =     0.00000000   -0.00000000   59.03659702
     atom    5 type  1   force =     0.00000000   -0.00000000  -18.91745775
     atom    6 type  1   force =     0.00000000   -0.00000000  -89.82350276
     The core correction contribution to forces
     atom    1 type  1   force =    -0.00000000    0.00000000    0.02567696
     atom    2 type  1   force =     0.00000000    0.00000000    0.00079870
     atom    3 type  1   force =    -0.00000000    0.00000000   -0.00813660
     atom    4 type  1   force =     0.00000000    0.00000000    0.00811432
     atom    5 type  1   force =     0.00000000    0.00000000   -0.00075956
     atom    6 type  1   force =     0.00000000    0.00000000   -0.02570114
     The Hubbard contrib.    to forces
     atom    1 type  1   force =     0.00000000    0.00000000    0.00000000
     atom    2 type  1   force =     0.00000000    0.00000000    0.00000000
     atom    3 type  1   force =     0.00000000    0.00000000    0.00000000
     atom    4 type  1   force =     0.00000000    0.00000000    0.00000000
     atom    5 type  1   force =     0.00000000    0.00000000    0.00000000
     atom    6 type  1   force =     0.00000000    0.00000000    0.00000000
     The SCF correction term to forces
     atom    1 type  1   force =     0.00000000   -0.00000000    0.00059280
     atom    2 type  1   force =     0.00000000    0.00000000   -0.00014587
     atom    3 type  1   force =    -0.00000000   -0.00000000   -0.00060564
     atom    4 type  1   force =    -0.00000000   -0.00000000    0.00063346
     atom    5 type  1   force =     0.00000000    0.00000000   -0.00004316
     atom    6 type  1   force =     0.00000000   -0.00000000   -0.00018969

     Total force =     0.035604     Total SCF correction =     0.001086


     Computing stress (Cartesian axis) and pressure


     negative rho (up, down):  9.833E-06 0.000E+00
          total   stress  (Ry/bohr**3)                   (kbar)     P=       11.22
   0.00016969   0.00000000   0.00000000           24.96        0.00        0.00
   0.00000000  -0.00012883   0.00000000            0.00      -18.95        0.00
   0.00000000   0.00000000   0.00018799            0.00        0.00       27.65

     kinetic stress (kbar)  10040.21      0.00      0.00
                                0.00   9925.36      0.00
                                0.00      0.00  10084.67

     local   stress (kbar)-202907.36     -0.00     -0.00
                               -0.00-204924.56      0.00
                               -0.00      0.00 228309.93

     nonloc. stress (kbar)  -6305.62      0.00      0.00
                                0.00  -6324.21      0.00
                                0.00      0.00  -6310.14

     hartree stress (kbar) 107325.23     -0.00      0.00
                               -0.00 108049.63     -0.00
                                0.00     -0.00-103827.22

     exc-cor stress (kbar)  25855.87      0.00      0.00
                                0.00  25856.48     -0.00
                                0.00     -0.00  25851.81

     corecor stress (kbar) -29849.27     -0.00     -0.00
                               -0.00 -29835.74      0.00
                               -0.00      0.00 -29853.44

     ewald   stress (kbar)  95865.90     -0.00      0.00
                               -0.00  97234.10      0.00
                                0.00      0.00-124227.97

     hubbard stress (kbar)      0.00      0.00      0.00
                                0.00      0.00      0.00
                                0.00      0.00      0.00

     DFT-D   stress (kbar)      0.00      0.00      0.00
                                0.00      0.00      0.00
                                0.00      0.00      0.00

     XDM     stress (kbar)      0.00      0.00      0.00
                                0.00      0.00      0.00
                                0.00      0.00      0.00

     dft-nl  stress (kbar)      0.00      0.00      0.00
                                0.00      0.00      0.00
                                0.00      0.00      0.00

     TS-vdW  stress (kbar)      0.00      0.00      0.00
                                0.00      0.00      0.00
                                0.00      0.00      0.00


     Energy error            =      1.9E-03
     Gradient error          =      2.3E-02

     number of scf cycles    =   3
     number of bfgs steps    =   2

     energy   old            =    -689.8083316271 Ry
     energy   new            =    -689.8101902676 Ry

     CASE: energy  _new < energy  _old

     new trust radius        =       0.0476053794 bohr
     new conv_thr            =       0.0000001859 Ry


ATOMIC_POSITIONS (angstrom)
Au            0.0000000000        0.0000000000       -0.0183474243
Au            0.0000000000        0.0000000000        2.9003784365
Au            0.0000000000        0.0000000000        5.8247236243
Au            2.0391250000        1.4418800000        1.3846314771
Au            2.0391250000        1.4418800000        4.3091445123
Au            2.0391250000        1.4418800000        7.2276693741



     Writing output data file ./surface.save/
     NEW-OLD atomic charge density approx. for the potential

     Check: negative core charge=   -0.000003

     negative rho (up, down):  9.583E-06 0.000E+00

     total cpu time spent up to now is       18.4 secs

     Self-consistent Calculation

     iteration #  1     ecut=    30.00 Ry     beta= 0.30
     Davidson diagonalization with overlap
     ethr =  1.00E-06,  avg # of iterations =  9.9

     negative rho (up, down):  9.538E-06 0.000E+00

     total cpu time spent up to now is       19.6 secs

     total energy              =    -689.81252275 Ry
     estimated scf accuracy    <       0.00014909 Ry

     iteration #  2     ecut=    30.00 Ry     beta= 0.30
     Davidson diagonalization with overlap
     ethr =  2.26E-07,  avg # of iterations =  2.0

     negative rho (up, down):  9.537E-06 0.000E+00

     total cpu time spent up to now is       20.1 secs

     total energy              =    -689.81252915 Ry
     estimated scf accuracy    <       0.00026477 Ry

     iteration #  3     ecut=    30.00 Ry     beta= 0.30
     Davidson diagonalization with overlap
     ethr =  2.26E-07,  avg # of iterations =  1.9

     negative rho (up, down):  9.579E-06 0.000E+00

     total cpu time spent up to now is       20.5 secs

     total energy              =    -689.81255466 Ry
     estimated scf accuracy    <       0.00002547 Ry

     iteration #  4     ecut=    30.00 Ry     beta= 0.30
     Davidson diagonalization with overlap
     ethr =  3.86E-08,  avg # of iterations =  2.0

     negative rho (up, down):  9.622E-06 0.000E+00

     total cpu time spent up to now is       21.0 secs

     total energy              =    -689.81255659 Ry
     estimated scf accuracy    <       0.00000435 Ry

     iteration #  5     ecut=    30.00 Ry     beta= 0.30
     Davidson diagonalization with overlap
     ethr =  6.59E-09,  avg # of iterations =  2.4

     negative rho (up, down):  9.655E-06 0.000E+00

     total cpu time spent up to now is       21.5 secs

     total energy              =    -689.81255592 Ry
     estimated scf accuracy    <       0.00003518 Ry

     iteration #  6     ecut=    30.00 Ry     beta= 0.30
     Davidson diagonalization with overlap
     ethr =  6.59E-09,  avg # of iterations =  1.9

     negative rho (up, down):  9.687E-06 0.000E+00

     total cpu time spent up to now is       21.9 secs

     total energy              =    -689.81255775 Ry
     estimated scf accuracy    <       0.00000057 Ry

     iteration #  7     ecut=    30.00 Ry     beta= 0.30
     Davidson diagonalization with overlap
     ethr =  8.67E-10,  avg # of iterations =  2.7

     negative rho (up, down):  9.755E-06 0.000E+00

     total cpu time spent up to now is       22.4 secs

     End of self-consistent calculation

          k = 0.0000 0.0000 0.0000 (  4117 PWs)   bands (ev):

    -4.6853  -3.2858  -2.1880  -1.8645  -1.7320  -1.6063  -1.1583  -0.5540
    -0.4504  -0.4399   0.0011   0.0020   0.0654   0.1161   0.4208   0.4655
     0.5568   0.6608   1.0082   1.0085   1.2225   1.3794   1.4119   1.5429
     1.6188   1.9263   2.0906   2.1204   2.4531   2.5034   2.6547   2.6619
     2.8745   3.9238   6.1342   6.8004   8.3093   8.8944   9.2040  10.1392

     occupation numbers 
     1.0000   1.0000   1.0000   1.0000   1.0000   1.0000   1.0000   1.0000
     1.0000   1.0000   1.0000   1.0000   1.0000   1.0000   1.0000   1.0000
     1.0000   1.0000   1.0000   1.0000   1.0000   1.0000   1.0000   1.0000
     1.0000   1.0000   1.0000   1.0000   1.0000   1.0000   1.0000   1.0000
     1.0000   1.0000   0.0000   0.0000   0.0000   0.0000   0.0000   0.0000

          k = 0.0000 0.3536 0.0000 (  4084 PWs)   bands (ev):

    -3.3672  -2.3035  -1.6245  -1.4784  -1.2870  -1.2507  -1.0465  -0.6511
    -0.6507  -0.6503  -0.4604  -0.0824   0.1852   0.3249   0.3984   0.6009
     0.7516   0.8036   1.1124   1.2086   1.2121   1.3728   1.4619   1.6212
     1.8803   1.9267   2.1414   2.1909   2.1978   2.3852   2.8272   2.8381
     2.9090   4.9395   7.3710   8.8690   9.7951   9.7964   9.9085  10.6017

     occupation numbers 
     1.0000   1.0000   1.0000   1.0000   1.0000   1.0000   1.0000   1.0000
     1.0000   1.0000   1.0000   1.0000   1.0000   1.0000   1.0000   1.0000
     1.0000   1.0000   1.0000   1.0000   1.0000   1.0000   1.0000   1.0000
     1.0000   1.0000   1.0000   1.0000   1.0000   1.0000   1.0000   1.0000
     1.0000   0.0000   0.0000   0.0000   0.0000   0.0000   0.0000   0.0000

          k = 0.0000-0.7071 0.0000 (  4126 PWs)   bands (ev):

    -2.1462  -2.1462  -1.8551  -1.8550  -1.3924  -1.3922  -1.1577  -1.1577
    -0.5960  -0.5959  -0.2857  -0.2854  -0.0811  -0.0810   1.0276   1.0280
     1.1973   1.1974   1.7571   1.7572   2.0501   2.0502   2.4184   2.4184
     2.4230   2.4232   2.6178   2.6179   2.8206   2.8206   4.4618   4.4618
     4.9625   4.9626   5.8395   5.8397   8.5284   8.5287  11.7247  11.7248

     occupation numbers 
     1.0000   1.0000   1.0000   1.0000   1.0000   1.0000   1.0000   1.0000
     1.0000   1.0000   1.0000   1.0000   1.0000   1.0000   1.0000   1.0000
     1.0000   1.0000   1.0000   1.0000   1.0000   1.0000   1.0000   1.0000
     1.0000   1.0000   1.0000   1.0000   1.0000   1.0000   0.9946   0.9946
     0.0000   0.0000   0.0000   0.0000   0.0000   0.0000   0.0000   0.0000

          k = 0.2500 0.0000 0.0000 (  4091 PWs)   bands (ev):

    -4.0280  -2.9490  -2.2089  -2.0384  -1.6556  -1.5356  -1.3246  -0.4030
    -0.2729  -0.2344   0.0665   0.0789   0.2062   0.3129   0.3640   0.4158
     0.5345   0.8374   0.9451   1.0261   1.2635   1.2876   1.3800   1.5890
     1.8767   1.8934   1.9649   2.1111   2.3796   2.5634   2.6278   2.6327
     2.7477   3.7471   4.4523   5.6666   6.6506   7.5430   9.2572   9.5193

     occupation numbers 
     1.0000   1.0000   1.0000   1.0000   1.0000   1.0000   1.0000   1.0000
     1.0000   1.0000   1.0000   1.0000   1.0000   1.0000   1.0000   1.0000
     1.0000   1.0000   1.0000   1.0000   1.0000   1.0000   1.0000   1.0000
     1.0000   1.0000   1.0000   1.0000   1.0000   1.0000   1.0000   1.0000
     1.0000   1.0000   0.9980   0.0000   0.0000   0.0000   0.0000   0.0000

          k = 0.2500 0.3536 0.0000 (  4092 PWs)   bands (ev):

    -2.9020  -1.9001  -1.5304  -1.3072  -1.1511  -0.9255  -0.8673  -0.6773
    -0.5868  -0.3777  -0.3737  -0.0579   0.0494   0.1241   0.3987   0.4578
     0.5872   0.6318   1.0405   1.1151   1.1651   1.2284   1.2317   1.4800
     1.6842   1.8132   2.0202   2.2029   2.4759   2.4881   2.5723   2.6736
     3.7401   5.5933   6.1214   6.7601   8.5237   8.8880  10.4314  10.6912

     occupation numbers 
     1.0000   1.0000   1.0000   1.0000   1.0000   1.0000   1.0000   1.0000
     1.0000   1.0000   1.0000   1.0000   1.0000   1.0000   1.0000   1.0000
     1.0000   1.0000   1.0000   1.0000   1.0000   1.0000   1.0000   1.0000
     1.0000   1.0000   1.0000   1.0000   1.0000   1.0000   1.0000   1.0000
     1.0000   0.0000   0.0000   0.0000   0.0000   0.0000   0.0000   0.0000

          k = 0.2500-0.7071 0.0000 (  4104 PWs)   bands (ev):

    -1.9793  -1.9793  -1.7321  -1.7321  -1.5453  -1.5452  -0.8465  -0.8463
    -0.5325  -0.5322   0.0329   0.0330   0.3589   0.3589   0.6154   0.6156
     1.0467   1.0468   1.3963   1.3965   1.8742   1.8743   2.0066   2.0068
     2.3342   2.3343   2.6964   2.6965   2.7516   2.7517   4.6126   4.6126
     5.7332   5.7332   7.1878   7.1878   8.8990   8.8992   9.7993   9.7993

     occupation numbers 
     1.0000   1.0000   1.0000   1.0000   1.0000   1.0000   1.0000   1.0000
     1.0000   1.0000   1.0000   1.0000   1.0000   1.0000   1.0000   1.0000
     1.0000   1.0000   1.0000   1.0000   1.0000   1.0000   1.0000   1.0000
     1.0000   1.0000   1.0000   1.0000   1.0000   1.0000   0.0037   0.0037
     0.0000   0.0000   0.0000   0.0000   0.0000   0.0000   0.0000   0.0000

          k =-0.5000 0.0000 0.0000 (  4098 PWs)   bands (ev):

    -2.6105  -2.6105  -2.4263  -2.4261  -1.5960  -1.5956  -0.8419  -0.8419
    -0.1432  -0.1432   0.1198   0.1198   0.1240   0.1241   0.4689   0.4693
     0.7022   0.7022   0.7365   0.7367   1.3326   1.3328   1.7360   1.7360
     2.1898   2.1899   2.2342   2.2342   2.5367   2.5368   2.6599   2.6600
     2.6623   2.6623   3.8628   3.8630   5.8269   5.8271   9.7625   9.7627

     occupation numbers 
     1.0000   1.0000   1.0000   1.0000   1.0000   1.0000   1.0000   1.0000
     1.0000   1.0000   1.0000   1.0000   1.0000   1.0000   1.0000   1.0000
     1.0000   1.0000   1.0000   1.0000   1.0000   1.0000   1.0000   1.0000
     1.0000   1.0000   1.0000   1.0000   1.0000   1.0000   1.0000   1.0000
     1.0000   1.0000   1.0000   1.0000   0.0000   0.0000   0.0000   0.0000

          k =-0.5000 0.3536 0.0000 (  4082 PWs)   bands (ev):

    -1.9089  -1.9088  -1.4247  -1.4246  -0.8199  -0.8199  -0.5173  -0.5172
    -0.3049  -0.3048  -0.1423  -0.1421   0.0632   0.0632   0.3090   0.3091
     0.5942   0.5943   0.9461   0.9463   1.0494   1.0499   1.1192   1.1194
     1.6967   1.6967   1.9853   1.9853   2.2883   2.2883   3.0808   3.0808
     4.1583   4.1583   5.6585   5.6585   7.9508   7.9508  10.6255  10.6256

     occupation numbers 
     1.0000   1.0000   1.0000   1.0000   1.0000   1.0000   1.0000   1.0000
     1.0000   1.0000   1.0000   1.0000   1.0000   1.0000   1.0000   1.0000
     1.0000   1.0000   1.0000   1.0000   1.0000   1.0000   1.0000   1.0000
     1.0000   1.0000   1.0000   1.0000   1.0000   1.0000   1.0000   1.0000
     1.0000   1.0000   0.0000   0.0000   0.0000   0.0000   0.0000   0.0000

          k =-0.5000-0.7071 0.0000 (  4136 PWs)   bands (ev):

    -2.2359  -2.2358  -1.2686  -1.2686  -1.0598  -1.0597  -0.5377  -0.5374
    -0.2802  -0.2799  -0.1475  -0.1475   0.0602   0.0604   0.3028   0.3029
     1.0012   1.0014   1.1595   1.1597   1.5995   1.5997   2.1325   2.1325
     2.5554   2.5555   2.6420   2.6421   2.7495   2.7498   4.8231   4.8231
     7.0491   7.0492   7.6920   7.6920   7.8922   7.8926   8.4795   8.4796

     occupation numbers 
     1.0000   1.0000   1.0000   1.0000   1.0000   1.0000   1.0000   1.0000
     1.0000   1.0000   1.0000   1.0000   1.0000   1.0000   1.0000   1.0000
     1.0000   1.0000   1.0000   1.0000   1.0000   1.0000   1.0000   1.0000
     1.0000   1.0000   1.0000   1.0000   1.0000   1.0000   0.0000   0.0000
     0.0000   0.0000   0.0000   0.0000   0.0000   0.0000   0.0000   0.0000

     the Fermi energy is     4.5353 ev

!    total energy              =    -689.81255781 Ry
     estimated scf accuracy    <       0.00000010 Ry
     smearing contrib. (-TS)   =      -0.00002337 Ry
     internal energy E=F+TS    =    -689.81253444 Ry

     The total energy is F=E-TS. E is the sum of the following terms:
     one-electron contribution =   -2115.96265920 Ry
     hartree contribution      =    1114.49466823 Ry
     xc contribution           =    -373.35794964 Ry
     ewald contribution        =     685.01340617 Ry

     convergence has been achieved in   7 iterations

     negative rho (up, down):  9.755E-06 0.000E+00

     Forces acting on atoms (cartesian axes, Ry/au):

     atom    1 type  1   force =     0.00000000    0.00000000   -0.00778007
     atom    2 type  1   force =     0.00000000    0.00000000    0.00358346
     atom    3 type  1   force =     0.00000000    0.00000000    0.01861392
     atom    4 type  1   force =     0.00000000    0.00000000   -0.01867191
     atom    5 type  1   force =     0.00000000    0.00000000   -0.00335292
     atom    6 type  1   force =     0.00000000    0.00000000    0.00760752
     The non-local contrib.  to forces
     atom    1 type  1   force =     0.00000000    0.00000000    0.01281104
     atom    2 type  1   force =     0.00000000    0.00000000   -0.00649480
     atom    3 type  1   force =     0.00000000    0.00000000   -0.02786494
     atom    4 type  1   force =     0.00000000    0.00000000    0.02783752
     atom    5 type  1   force =     0.00000000    0.00000000    0.00667688
     atom    6 type  1   force =     0.00000000    0.00000000   -0.01295483
     The ionic contribution  to forces
     atom    1 type  1   force =    -0.00000000    0.00000000  -89.46449771
     atom    2 type  1   force =    -0.00000000    0.00000000  -18.60729352
     atom    3 type  1   force =    -0.00000000    0.00000000   58.97108258
     atom    4 type  1   force =    -0.00000000   -0.00000000  -58.97099001
     atom    5 type  1   force =    -0.00000000   -0.00000000   18.60542761
     atom    6 type  1   force =    -0.00000000   -0.00000000   89.46627105
     The local contribution  to forces
     atom    1 type  1   force =     0.00000000   -0.00000000   89.41866852
     atom    2 type  1   force =     0.00000000    0.00000000   18.61562371
     atom    3 type  1   force =     0.00000000    0.00000000  -58.91703343
     atom    4 type  1   force =     0.00000000   -0.00000000   58.91756352
     atom    5 type  1   force =     0.00000000   -0.00000000  -18.61420684
     atom    6 type  1   force =     0.00000000   -0.00000000  -89.41955336
     The core correction contribution to forces
     atom    1 type  1   force =     0.00000000   -0.00000000    0.02589739
     atom    2 type  1   force =    -0.00000000    0.00000000    0.00134791
     atom    3 type  1   force =     0.00000000   -0.00000000   -0.00718148
     atom    4 type  1   force =     0.00000000    0.00000000    0.00716948
     atom    5 type  1   force =     0.00000000    0.00000000   -0.00133106
     atom    6 type  1   force =     0.00000000    0.00000000   -0.02594742
     The Hubbard contrib.    to forces
     atom    1 type  1   force =     0.00000000    0.00000000    0.00000000
     atom    2 type  1   force =     0.00000000    0.00000000    0.00000000
     atom    3 type  1   force =     0.00000000    0.00000000    0.00000000
     atom    4 type  1   force =     0.00000000    0.00000000    0.00000000
     atom    5 type  1   force =     0.00000000    0.00000000    0.00000000
     atom    6 type  1   force =     0.00000000    0.00000000    0.00000000
     The SCF correction term to forces
     atom    1 type  1   force =     0.00000000   -0.00000000   -0.00069381
     atom    2 type  1   force =     0.00000000    0.00000000    0.00036565
     atom    3 type  1   force =    -0.00000000    0.00000000   -0.00042332
[...]
     ethr =  2.58E-09,  avg # of iterations =  1.0

     negative rho (up, down):  7.535E-06 0.000E+00

     total cpu time spent up to now is       70.2 secs

     total energy              =    -689.81885337 Ry
     estimated scf accuracy    <       0.00000066 Ry

     iteration #  6     ecut=    30.00 Ry     beta= 0.30
     Davidson diagonalization with overlap
     ethr =  9.94E-10,  avg # of iterations =  1.0

     negative rho (up, down):  7.536E-06 0.000E+00

     total cpu time spent up to now is       70.6 secs

     total energy              =    -689.81885341 Ry
     estimated scf accuracy    <       0.00000007 Ry

     iteration #  7     ecut=    30.00 Ry     beta= 0.30
     Davidson diagonalization with overlap
     ethr =  9.90E-11,  avg # of iterations =  2.0

     negative rho (up, down):  7.546E-06 0.000E+00

     total cpu time spent up to now is       71.1 secs

     End of self-consistent calculation

          k = 0.0000 0.0000 0.0000 (  4117 PWs)   bands (ev):

    -4.3020  -3.1337  -1.9122  -1.8544  -1.5169  -1.3918  -1.1429  -0.4179
    -0.2742  -0.2193   0.0593   0.1454   0.1907   0.4133   0.5300   0.6083
     0.6189   0.7785   1.1868   1.2120   1.2309   1.4624   1.5090   1.7245
     1.7272   1.9816   2.1672   2.2133   2.4515   2.4873   2.5817   2.7307
     2.8902   3.6411   5.8651   7.0052   8.0863   8.8233   9.1333  10.1342

     occupation numbers 
     1.0000   1.0000   1.0000   1.0000   1.0000   1.0000   1.0000   1.0000
     1.0000   1.0000   1.0000   1.0000   1.0000   1.0000   1.0000   1.0000
     1.0000   1.0000   1.0000   1.0000   1.0000   1.0000   1.0000   1.0000
     1.0000   1.0000   1.0000   1.0000   1.0000   1.0000   1.0000   1.0000
     1.0000   1.0000   0.0000   0.0000   0.0000   0.0000   0.0000   0.0000

          k = 0.0000 0.3536 0.0000 (  4084 PWs)   bands (ev):

    -2.9724  -2.0719  -1.3899  -1.1246  -0.9898  -0.9339  -0.7361  -0.5899
    -0.5864  -0.4384  -0.3448   0.0106   0.2137   0.2972   0.4091   0.7931
     0.8456   0.8564   1.2127   1.2257   1.2924   1.4444   1.4621   1.7113
     1.9002   1.9849   2.2021   2.2784   2.3006   2.3878   2.8116   2.8447
     2.8580   4.8153   7.1583   8.8591   9.7499   9.8802   9.9214  10.6545

     occupation numbers 
     1.0000   1.0000   1.0000   1.0000   1.0000   1.0000   1.0000   1.0000
     1.0000   1.0000   1.0000   1.0000   1.0000   1.0000   1.0000   1.0000
     1.0000   1.0000   1.0000   1.0000   1.0000   1.0000   1.0000   1.0000
     1.0000   1.0000   1.0000   1.0000   1.0000   1.0000   1.0000   1.0000
     1.0000   0.0000   0.0000   0.0000   0.0000   0.0000   0.0000   0.0000

          k = 0.0000-0.7071 0.0000 (  4126 PWs)   bands (ev):

    -1.8113  -1.8112  -1.5315  -1.5315  -1.1713  -1.1713  -0.9724  -0.9723
    -0.3130  -0.3129  -0.2967  -0.2965  -0.0087  -0.0087   1.1149   1.1151
     1.3307   1.3309   1.8031   1.8032   2.0707   2.0707   2.3405   2.3406
     2.4735   2.4736   2.6301   2.6301   2.8368   2.8369   4.5969   4.5969
     5.0068   5.0069   5.8041   5.8041   8.5475   8.5475  11.4159  11.4159

     occupation numbers 
     1.0000   1.0000   1.0000   1.0000   1.0000   1.0000   1.0000   1.0000
     1.0000   1.0000   1.0000   1.0000   1.0000   1.0000   1.0000   1.0000
     1.0000   1.0000   1.0000   1.0000   1.0000   1.0000   1.0000   1.0000
     1.0000   1.0000   1.0000   1.0000   1.0000   1.0000   0.9945   0.9945
     0.0000   0.0000   0.0000   0.0000   0.0000   0.0000   0.0000   0.0000

          k = 0.2500 0.0000 0.0000 (  4091 PWs)   bands (ev):

    -3.6535  -2.7563  -2.0523  -1.7796  -1.4942  -1.4682  -1.0670  -0.2902
    -0.1856  -0.0441   0.1790   0.2128   0.4362   0.4966   0.5591   0.5618
     0.6893   0.9048   1.0389   1.0649   1.3413   1.3893   1.4243   1.5879
     1.9486   2.0111   2.0405   2.1536   2.3988   2.5419   2.6518   2.6819
     2.8021   3.8093   4.3507   5.5973   6.5361   7.4302   9.0227   9.4819

     occupation numbers 
     1.0000   1.0000   1.0000   1.0000   1.0000   1.0000   1.0000   1.0000
     1.0000   1.0000   1.0000   1.0000   1.0000   1.0000   1.0000   1.0000
     1.0000   1.0000   1.0000   1.0000   1.0000   1.0000   1.0000   1.0000
     1.0000   1.0000   1.0000   1.0000   1.0000   1.0000   1.0000   1.0000
     1.0000   1.0000   1.0000   0.0000   0.0000   0.0000   0.0000   0.0000

          k = 0.2500 0.3536 0.0000 (  4092 PWs)   bands (ev):

    -2.5064  -1.6496  -1.2226  -0.9947  -0.8302  -0.6465  -0.6328  -0.4985
    -0.4440  -0.2931  -0.2359   0.0466   0.0674   0.1280   0.4611   0.4762
     0.6146   0.9511   1.0749   1.1383   1.2177   1.3088   1.3250   1.5466
     1.7923   1.8852   2.0892   2.2423   2.4118   2.4683   2.5513   2.6913
     3.6909   5.5673   6.1048   6.6599   8.4727   8.8556  10.2659  10.6363

     occupation numbers 
     1.0000   1.0000   1.0000   1.0000   1.0000   1.0000   1.0000   1.0000
     1.0000   1.0000   1.0000   1.0000   1.0000   1.0000   1.0000   1.0000
     1.0000   1.0000   1.0000   1.0000   1.0000   1.0000   1.0000   1.0000
     1.0000   1.0000   1.0000   1.0000   1.0000   1.0000   1.0000   1.0000
     1.0000   0.0000   0.0000   0.0000   0.0000   0.0000   0.0000   0.0000

          k = 0.2500-0.7071 0.0000 (  4104 PWs)   bands (ev):

    -1.6248  -1.6248  -1.4314  -1.4312  -1.3136  -1.3135  -0.7249  -0.7248
    -0.4284  -0.4284   0.0262   0.0262   0.5851   0.5852   0.7766   0.7767
     1.1615   1.1616   1.5010   1.5011   1.8591   1.8592   2.0674   2.0674
     2.3437   2.3437   2.7296   2.7296   2.7665   2.7666   4.7505   4.7505
     5.7312   5.7312   7.1101   7.1102   8.8485   8.8485   9.8600   9.8601

     occupation numbers 
     1.0000   1.0000   1.0000   1.0000   1.0000   1.0000   1.0000   1.0000
     1.0000   1.0000   1.0000   1.0000   1.0000   1.0000   1.0000   1.0000
     1.0000   1.0000   1.0000   1.0000   1.0000   1.0000   1.0000   1.0000
     1.0000   1.0000   1.0000   1.0000   1.0000   1.0000   0.0027   0.0027
     0.0000   0.0000   0.0000   0.0000   0.0000   0.0000   0.0000   0.0000

          k =-0.5000 0.0000 0.0000 (  4098 PWs)   bands (ev):

    -2.2924  -2.2921  -2.1826  -2.1824  -1.5206  -1.5205  -0.5812  -0.5811
     0.0118   0.0118   0.2599   0.2600   0.3989   0.3990   0.6101   0.6102
     0.7117   0.7119   0.8460   0.8461   1.3335   1.3336   1.8443   1.8443
     2.1380   2.1380   2.2514   2.2514   2.6060   2.6061   2.6901   2.6903
     2.7207   2.7207   3.7656   3.7658   5.8745   5.8746   9.3781   9.3782

     occupation numbers 
     1.0000   1.0000   1.0000   1.0000   1.0000   1.0000   1.0000   1.0000
     1.0000   1.0000   1.0000   1.0000   1.0000   1.0000   1.0000   1.0000
     1.0000   1.0000   1.0000   1.0000   1.0000   1.0000   1.0000   1.0000
     1.0000   1.0000   1.0000   1.0000   1.0000   1.0000   1.0000   1.0000
     1.0000   1.0000   1.0000   1.0000   0.0000   0.0000   0.0000   0.0000

          k =-0.5000 0.3536 0.0000 (  4082 PWs)   bands (ev):

    -1.5303  -1.5303  -1.1347  -1.1347  -0.6466  -0.6465  -0.2504  -0.2503
    -0.1566  -0.1565   0.0293   0.0293   0.1033   0.1034   0.3942   0.3943
     0.7324   0.7324   1.0614   1.0614   1.0695   1.0696   1.1262   1.1263
     1.7922   1.7923   2.0167   2.0168   2.2297   2.2298   3.1394   3.1394
     4.1537   4.1538   5.5382   5.5383   7.9219   7.9220  10.3598  10.3599

     occupation numbers 
     1.0000   1.0000   1.0000   1.0000   1.0000   1.0000   1.0000   1.0000
     1.0000   1.0000   1.0000   1.0000   1.0000   1.0000   1.0000   1.0000
     1.0000   1.0000   1.0000   1.0000   1.0000   1.0000   1.0000   1.0000
     1.0000   1.0000   1.0000   1.0000   1.0000   1.0000   1.0000   1.0000
     1.0000   1.0000   0.0000   0.0000   0.0000   0.0000   0.0000   0.0000

          k =-0.5000-0.7071 0.0000 (  4136 PWs)   bands (ev):

    -1.8801  -1.8800  -1.1104  -1.1103  -0.7805  -0.7804  -0.4374  -0.4374
    -0.3128  -0.3126  -0.0596  -0.0595   0.2752   0.2753   0.6511   0.6511
     1.1171   1.1171   1.2834   1.2835   1.6488   1.6489   2.1188   2.1189
     2.6284   2.6285   2.6693   2.6694   2.7482   2.7483   5.0015   5.0015
     6.9808   6.9808   7.7339   7.7340   7.9556   7.9556   8.3741   8.3742

     occupation numbers 
     1.0000   1.0000   1.0000   1.0000   1.0000   1.0000   1.0000   1.0000
     1.0000   1.0000   1.0000   1.0000   1.0000   1.0000   1.0000   1.0000
     1.0000   1.0000   1.0000   1.0000   1.0000   1.0000   1.0000   1.0000
     1.0000   1.0000   1.0000   1.0000   1.0000   1.0000   0.0000   0.0000
     0.0000   0.0000   0.0000   0.0000   0.0000   0.0000   0.0000   0.0000

     the Fermi energy is     4.6703 ev

!    total energy              =    -689.81885342 Ry
     estimated scf accuracy    <          9.0E-09 Ry
     smearing contrib. (-TS)   =      -0.00001727 Ry
     internal energy E=F+TS    =    -689.81883615 Ry

     The total energy is F=E-TS. E is the sum of the following terms:
     one-electron contribution =   -1972.52807898 Ry
     hartree contribution      =    1042.97423918 Ry
     xc contribution           =    -373.24588612 Ry
     ewald contribution        =     612.98088977 Ry

     convergence has been achieved in   7 iterations

     negative rho (up, down):  7.546E-06 0.000E+00

     Forces acting on atoms (cartesian axes, Ry/au):

     atom    1 type  1   force =     0.00000000    0.00000000   -0.00059533
     atom    2 type  1   force =     0.00000000    0.00000000    0.00080663
     atom    3 type  1   force =     0.00000000    0.00000000   -0.00055406
     atom    4 type  1   force =     0.00000000    0.00000000    0.00051286
     atom    5 type  1   force =     0.00000000    0.00000000   -0.00073849
     atom    6 type  1   force =     0.00000000    0.00000000    0.00056838
     The non-local contrib.  to forces
     atom    1 type  1   force =     0.00000000    0.00000000    0.00667817
     atom    2 type  1   force =     0.00000000    0.00000000   -0.01108208
     atom    3 type  1   force =     0.00000000    0.00000000   -0.03194101
     atom    4 type  1   force =     0.00000000    0.00000000    0.03190322
     atom    5 type  1   force =     0.00000000    0.00000000    0.01108626
     atom    6 type  1   force =     0.00000000    0.00000000   -0.00666754
     The ionic contribution  to forces
     atom    1 type  1   force =     0.00000000    0.00000000  -86.24001167
     atom    2 type  1   force =     0.00000000    0.00000000  -17.29837703
     atom    3 type  1   force =    -0.00000000    0.00000000   56.86230804
     atom    4 type  1   force =    -0.00000000   -0.00000000  -56.86215671
     atom    5 type  1   force =    -0.00000000   -0.00000000   17.30041630
     atom    6 type  1   force =     0.00000000   -0.00000000   86.23782108
     The local contribution  to forces
     atom    1 type  1   force =     0.00000000    0.00000000   86.20736502
     atom    2 type  1   force =     0.00000000    0.00000000   17.30787530
     atom    3 type  1   force =    -0.00000000    0.00000000  -56.82864728
     atom    4 type  1   force =     0.00000000   -0.00000000   56.82856380
     atom    5 type  1   force =     0.00000000   -0.00000000  -17.30986958
     atom    6 type  1   force =     0.00000000   -0.00000000  -86.20506607
     The core correction contribution to forces
     atom    1 type  1   force =    -0.00000000    0.00000000    0.02544198
     atom    2 type  1   force =    -0.00000000    0.00000000    0.00231967
     atom    3 type  1   force =     0.00000000    0.00000000   -0.00240929
     atom    4 type  1   force =     0.00000000    0.00000000    0.00242181
     atom    5 type  1   force =     0.00000000    0.00000000   -0.00234876
     atom    6 type  1   force =    -0.00000000    0.00000000   -0.02548413
     The Hubbard contrib.    to forces
     atom    1 type  1   force =     0.00000000    0.00000000    0.00000000
     atom    2 type  1   force =     0.00000000    0.00000000    0.00000000
     atom    3 type  1   force =     0.00000000    0.00000000    0.00000000
     atom    4 type  1   force =     0.00000000    0.00000000    0.00000000
     atom    5 type  1   force =     0.00000000    0.00000000    0.00000000
     atom    6 type  1   force =     0.00000000    0.00000000    0.00000000
     The SCF correction term to forces
     atom    1 type  1   force =     0.00000000    0.00000000   -0.00008141
     atom    2 type  1   force =    -0.00000000    0.00000000    0.00005819
     atom    3 type  1   force =     0.00000000    0.00000000    0.00012290
     atom    4 type  1   force =    -0.00000000   -0.00000000   -0.00023185
     atom    5 type  1   force =     0.00000000    0.00000000   -0.00003530
     atom    6 type  1   force =     0.00000000    0.00000000   -0.00004754

     Total force =     0.001563     Total SCF correction =     0.000287
     SCF correction compared to forces is large: reduce conv_thr to get better values


     Computing stress (Cartesian axis) and pressure


     negative rho (up, down):  7.546E-06 0.000E+00
          total   stress  (Ry/bohr**3)                   (kbar)     P=       -8.68
   0.00005989   0.00000000   0.00000000            8.81        0.00        0.00
   0.00000000  -0.00023266   0.00000000            0.00      -34.23        0.00
   0.00000000   0.00000000  -0.00000421            0.00        0.00       -0.62

     kinetic stress (kbar)  10032.23      0.00      0.00
                                0.00   9910.56      0.00
                                0.00      0.00  10089.13

     local   stress (kbar)-186848.66     -0.00      0.00
                               -0.00-189054.81     -0.00
                                0.00     -0.00 212224.33

     nonloc. stress (kbar)  -6318.67      0.00      0.00
                                0.00  -6337.51      0.00
                                0.00      0.00  -6324.64

     hartree stress (kbar)  99377.14      0.00      0.00
                                0.00 100150.97     -0.00
                                0.00     -0.00 -95879.60

     exc-cor stress (kbar)  25859.03      0.00     -0.00
                                0.00  25860.05      0.00
                               -0.00      0.00  25853.76

     corecor stress (kbar) -29848.18      0.00      0.00
                                0.00 -29834.47      0.00
                                0.00      0.00 -29853.40

     ewald   stress (kbar)  87755.93      0.00      0.00
                                0.00  89270.98     -0.00
                                0.00     -0.00-116110.20

     hubbard stress (kbar)      0.00      0.00      0.00
                                0.00      0.00      0.00
                                0.00      0.00      0.00

     DFT-D   stress (kbar)      0.00      0.00      0.00
                                0.00      0.00      0.00
                                0.00      0.00      0.00

     XDM     stress (kbar)      0.00      0.00      0.00
                                0.00      0.00      0.00
                                0.00      0.00      0.00

     dft-nl  stress (kbar)      0.00      0.00      0.00
                                0.00      0.00      0.00
                                0.00      0.00      0.00

     TS-vdW  stress (kbar)      0.00      0.00      0.00
                                0.00      0.00      0.00
                                0.00      0.00      0.00


     Energy error            =      2.2E-05
     Gradient error          =      8.1E-04

     bfgs converged in  12 scf cycles and  11 bfgs steps
     (criteria: energy <  1.0E-04 Ry, force <  1.0E-03 Ry/Bohr)

     End of BFGS Geometry Optimization

     Final energy   =    -689.8188534173 Ry

     File ./surface.bfgs deleted, as requested
Begin final coordinates

ATOMIC_POSITIONS (angstrom)
Au            0.0000000000        0.0000000000       -0.1332167863
Au            0.0000000000        0.0000000000        2.8887725011
Au            0.0000000000        0.0000000000        5.9760082469
Au            2.0391250000        1.4418800000        1.2335451412
Au            2.0391250000        1.4418800000        4.3204565029
Au            2.0391250000        1.4418800000        7.3426343943
End final coordinates



     Writing output data file ./surface.save/

     init_run     :      0.39s CPU      0.43s WALL (       1 calls)
     electrons    :     50.87s CPU     56.01s WALL (      12 calls)
     update_pot   :      1.64s CPU      1.66s WALL (      11 calls)
     forces       :      2.73s CPU      2.90s WALL (      12 calls)
     stress       :      9.94s CPU     10.28s WALL (      12 calls)

     Called by init_run:
     wfcinit      :      0.12s CPU      0.13s WALL (       1 calls)
     wfcinit:atom :      0.00s CPU      0.00s WALL (       9 calls)
     wfcinit:wfcr :      0.11s CPU      0.12s WALL (       9 calls)
     potinit      :      0.06s CPU      0.06s WALL (       1 calls)
     hinit0       :      0.13s CPU      0.14s WALL (       1 calls)

     Called by electrons:
     c_bands      :     35.65s CPU     36.33s WALL (     103 calls)
     sum_band     :      9.45s CPU     12.18s WALL (     103 calls)
     v_of_rho     :      1.25s CPU      1.35s WALL (     110 calls)
     v_h          :      0.06s CPU      0.06s WALL (     110 calls)
     v_xc         :      1.46s CPU      1.56s WALL (     134 calls)
     newd         :      4.88s CPU      6.30s WALL (     110 calls)
     mix_rho      :      0.12s CPU      0.12s WALL (     103 calls)

     Called by c_bands:
     init_us_2    :      0.30s CPU      0.31s WALL (    2079 calls)
     cegterg      :     34.43s CPU     35.09s WALL (     927 calls)

     Called by sum_band:
     sum_band:wei :      0.01s CPU      0.01s WALL (     103 calls)
     sum_band:loo :      3.24s CPU      3.34s WALL (     103 calls)
     sum_band:buf :      0.03s CPU      0.03s WALL (     927 calls)
     sum_band:ini :      0.12s CPU      0.12s WALL (     927 calls)
     sum_band:cal :      0.81s CPU      0.82s WALL (     927 calls)
     sum_band:bec :      0.05s CPU      0.05s WALL (     927 calls)
     addusdens    :      6.02s CPU      8.62s WALL (     103 calls)
     addusd:skk   :      0.02s CPU      0.02s WALL (     103 calls)
     addusd:dgemm :      2.54s CPU      4.94s WALL (     103 calls)
     addusd:qvan2 :      2.90s CPU      2.92s WALL (     103 calls)

     Called by *egterg:
     cdiaghg      :      8.46s CPU      8.54s WALL (    3578 calls)
     cegterg:over :      2.38s CPU      2.40s WALL (    2795 calls)
     cegterg:upda :      1.10s CPU      1.11s WALL (    2795 calls)
     cegterg:last :      2.65s CPU      2.67s WALL (    2325 calls)
     cdiaghg:chol :      0.44s CPU      0.44s WALL (    3578 calls)
     cdiaghg:inve :      0.25s CPU      0.25s WALL (    3578 calls)
     cdiaghg:para :      0.78s CPU      0.79s WALL (    7156 calls)
     h_psi        :     17.55s CPU     18.06s WALL (    3731 calls)
     s_psi        :      1.71s CPU      1.74s WALL (    3731 calls)
     g_psi        :      0.05s CPU      0.05s WALL (    2795 calls)

     Called by h_psi:
     h_psi:calbec :      2.55s CPU      2.60s WALL (    3731 calls)
     vloc_psi     :     13.14s CPU     13.57s WALL (    3731 calls)
     add_vuspsi   :      1.80s CPU      1.82s WALL (    3731 calls)

     General routines
     calbec       :      3.85s CPU      3.92s WALL (    5198 calls)
     fft          :      0.86s CPU      0.91s WALL (    1722 calls)
     ffts         :      0.03s CPU      0.03s WALL (     213 calls)
     fftw         :     14.48s CPU     14.97s WALL (  254172 calls)
     interpolate  :      0.06s CPU      0.07s WALL (     110 calls)

     Parallel routines
     fft_scatt_xy :      1.20s CPU      1.24s WALL (  256107 calls)
     fft_scatt_yz :      7.38s CPU      7.64s WALL (  256107 calls)

     PWSCF        :   1m 6.31s CPU   1m13.02s WALL


   This run was terminated on:   3:52:57  10Dec2021            

=------------------------------------------------------------------------------=
   JOB DONE.
=------------------------------------------------------------------------------=
