
     Program PWSCF v.6.7MaX starts on  6Dec2021 at  0:24:51 

     This program is part of the open-source Quantum ESPRESSO suite
     for quantum simulation of materials; please cite
         "P. Giannozzi et al., J. Phys.:Condens. Matter 21 395502 (2009);
         "P. Giannozzi et al., J. Phys.:Condens. Matter 29 465901 (2017);
          URL http://www.quantum-espresso.org", 
     in publications or presentations arising from this work. More details at
     http://www.quantum-espresso.org/quote

     Parallel version (MPI), running on    32 processors

     MPI processes distributed on     1 nodes
     R & G space division:  proc/nbgrp/npool/nimage =      32
     Reading input from pt_surface.100.k.qe.6_6_1.in

     Current dimensions of program PWSCF are:
     Max number of different atomic species (ntypx) = 10
     Max number of k-points (npk) =  40000
     Max angular momentum in pseudopotentials (lmaxx) =  3

     Subspace diagonalization in iterative solution of the eigenvalue problem:
     one sub-group per band group will be used
     scalapack distributed-memory algorithm (size of sub-group:  5*  5 procs)

     Found symmetry operation: I + (  0.2500  0.2500  0.0000)
     This is a supercell, fractional translations are disabled

     Parallelization info
     --------------------
     sticks:   dense  smooth     PW     G-vecs:    dense   smooth      PW
     Min         168      67     18                16362     4131     600
     Max         169      68     19                16371     4140     609
     Sum        5393    2161    593               523697   132301   19369



     bravais-lattice index     =            8
     lattice parameter (alat)  =      15.0300  a.u.
     unit-cell volume          =    5966.5648 (a.u.)^3
     number of atoms/cell      =           16
     number of atomic types    =            1
     number of electrons       =       256.00
     number of Kohn-Sham states=          154
     kinetic-energy cutoff     =      30.0000  Ry
     charge density cutoff     =     300.0000  Ry
     scf convergence threshold =      1.0E-06
     mixing beta               =       0.3000
     number of iterations used =            8  plain     mixing
     energy convergence thresh.=      1.0E-04
     force convergence thresh. =      1.0E-03
     Exchange-correlation=  SLA  PW   PBX  PBC
                           (   1   4   3   4   0   0   0)
     nstep                     =           50


     celldm(1)=  15.030012  celldm(2)=   1.000000  celldm(3)=   1.757302
     celldm(4)=   0.000000  celldm(5)=   0.000000  celldm(6)=   0.000000

     crystal axes: (cart. coord. in units of alat)
               a(1) = (   1.000000   0.000000   0.000000 )  
               a(2) = (   0.000000   1.000000   0.000000 )  
               a(3) = (   0.000000   0.000000   1.757302 )  

     reciprocal axes: (cart. coord. in units 2 pi/alat)
               b(1) = (  1.000000  0.000000  0.000000 )  
               b(2) = (  0.000000  1.000000  0.000000 )  
               b(3) = (  0.000000  0.000000  0.569054 )  


     PseudoPot. # 1 for Pt read from file:
     /expanse/lustre/projects/csd622/tpascal/nano110/qe/pseudo/pt_pbe_v1.4.uspp.F.UPF
     MD5 check sum: f09d6de1a584b5a045c4fc126da2d0c4
     Pseudo is Ultrasoft + core correction, Zval = 16.0
     Generated by new atomic code, or converted to UPF format
     Using radial grid of  985 points,  6 beta functions with: 
                l(1) =   0
                l(2) =   0
                l(3) =   1
                l(4) =   1
                l(5) =   2
                l(6) =   2
     Q(r) pseudized with  8 coefficients,  rinner =    1.300   1.300   1.300
                                                       1.300   1.300

     atomic species   valence    mass     pseudopotential
        Pt            16.00   195.08400     Pt( 1.00)

      8 Sym. Ops. (no inversion) found


                                    s                        frac. trans.

      isym =  1     identity                                     

 cryst.   s( 1) = (     1          0          0      )
                  (     0          1          0      )
                  (     0          0          1      )

 cart.    s( 1) = (  1.0000000  0.0000000  0.0000000 )
                  (  0.0000000  1.0000000  0.0000000 )
                  (  0.0000000  0.0000000  1.0000000 )


      isym =  2     180 deg rotation - cart. axis [0,0,1]        

 cryst.   s( 2) = (    -1          0          0      )
                  (     0         -1          0      )
                  (     0          0          1      )

 cart.    s( 2) = ( -1.0000000  0.0000000  0.0000000 )
                  (  0.0000000 -1.0000000  0.0000000 )
                  (  0.0000000  0.0000000  1.0000000 )


      isym =  3      90 deg rotation - cart. axis [0,0,-1]       

 cryst.   s( 3) = (     0         -1          0      )
                  (     1          0          0      )
                  (     0          0          1      )

 cart.    s( 3) = (  0.0000000  1.0000000  0.0000000 )
                  ( -1.0000000  0.0000000  0.0000000 )
                  (  0.0000000  0.0000000  1.0000000 )


      isym =  4      90 deg rotation - cart. axis [0,0,1]        

 cryst.   s( 4) = (     0          1          0      )
                  (    -1          0          0      )
                  (     0          0          1      )

 cart.    s( 4) = (  0.0000000 -1.0000000  0.0000000 )
                  (  1.0000000  0.0000000  0.0000000 )
                  (  0.0000000  0.0000000  1.0000000 )


      isym =  5     inv. 180 deg rotation - cart. axis [0,1,0]   

 cryst.   s( 5) = (     1          0          0      )
                  (     0         -1          0      )
                  (     0          0          1      )

 cart.    s( 5) = (  1.0000000  0.0000000  0.0000000 )
                  (  0.0000000 -1.0000000  0.0000000 )
                  (  0.0000000  0.0000000  1.0000000 )


      isym =  6     inv. 180 deg rotation - cart. axis [1,0,0]   

 cryst.   s( 6) = (    -1          0          0      )
                  (     0          1          0      )
                  (     0          0          1      )

 cart.    s( 6) = ( -1.0000000  0.0000000  0.0000000 )
                  (  0.0000000  1.0000000  0.0000000 )
                  (  0.0000000  0.0000000  1.0000000 )


      isym =  7     inv. 180 deg rotation - cart. axis [1,1,0]   

 cryst.   s( 7) = (     0         -1          0      )
                  (    -1          0          0      )
                  (     0          0          1      )

 cart.    s( 7) = (  0.0000000 -1.0000000  0.0000000 )
                  ( -1.0000000  0.0000000  0.0000000 )
                  (  0.0000000  0.0000000  1.0000000 )


      isym =  8     inv. 180 deg rotation - cart. axis [1,-1,0]  

 cryst.   s( 8) = (     0          1          0      )
                  (     1          0          0      )
                  (     0          0          1      )

 cart.    s( 8) = (  0.0000000  1.0000000  0.0000000 )
                  (  1.0000000  0.0000000  0.0000000 )
                  (  0.0000000  0.0000000  1.0000000 )


     point group C_4v (4mm) 
     there are  5 classes
     the character table:

       E     2C4   C2    2s_v  2s_d 
A_1    1.00  1.00  1.00  1.00  1.00
A_2    1.00  1.00  1.00 -1.00 -1.00
B_1    1.00 -1.00  1.00  1.00 -1.00
B_2    1.00 -1.00  1.00 -1.00  1.00
E      2.00  0.00 -2.00  0.00  0.00

     the symmetry operations in each class and the name of the first element:

     E        1
          identity                                               
     2C4      3    4
           90 deg rotation - cart. axis [0,0,-1]                 
     C2       2
          180 deg rotation - cart. axis [0,0,1]                  
     2s_v     5    6
          inv. 180 deg rotation - cart. axis [0,1,0]             
     2s_d     7    8
          inv. 180 deg rotation - cart. axis [1,1,0]             

   Cartesian axes

     site n.     atom                  positions (alat units)
         1           Pt  tau(   1) = (   0.0000000   0.0000000   0.0000000  )
         2           Pt  tau(   2) = (   0.5000000   0.2500000   0.2500000  )
         3           Pt  tau(   3) = (   0.2500000   0.0000000   0.2500000  )
         4           Pt  tau(   4) = (   0.2500000   0.2500000   0.0000000  )
         5           Pt  tau(   5) = (   0.0000000   0.5000000   0.0000000  )
         6           Pt  tau(   6) = (   0.5000000   0.7500000   0.2500000  )
         7           Pt  tau(   7) = (   0.2500000   0.5000000   0.2500000  )
         8           Pt  tau(   8) = (   0.2500000   0.7500000   0.0000000  )
         9           Pt  tau(   9) = (   0.5000000   0.0000000   0.0000000  )
        10           Pt  tau(  10) = (   1.0000000   0.2500000   0.2500000  )
        11           Pt  tau(  11) = (   0.7500000   0.0000000   0.2500000  )
        12           Pt  tau(  12) = (   0.7500000   0.2500000   0.0000000  )
        13           Pt  tau(  13) = (   0.5000000   0.5000000   0.0000000  )
        14           Pt  tau(  14) = (   1.0000000   0.7500000   0.2500000  )
        15           Pt  tau(  15) = (   0.7500000   0.5000000   0.2500000  )
        16           Pt  tau(  16) = (   0.7500000   0.7500000   0.0000000  )

   Crystallographic axes

     site n.     atom                  positions (cryst. coord.)
         1           Pt  tau(   1) = (  0.0000000  0.0000000  0.0000000  )
         2           Pt  tau(   2) = (  0.5000000  0.2500000  0.1422636  )
         3           Pt  tau(   3) = (  0.2500000  0.0000000  0.1422636  )
         4           Pt  tau(   4) = (  0.2500000  0.2500000  0.0000000  )
         5           Pt  tau(   5) = (  0.0000000  0.5000000  0.0000000  )
         6           Pt  tau(   6) = (  0.5000000  0.7500000  0.1422636  )
         7           Pt  tau(   7) = (  0.2500000  0.5000000  0.1422636  )
         8           Pt  tau(   8) = (  0.2500000  0.7500000  0.0000000  )
         9           Pt  tau(   9) = (  0.5000000  0.0000000  0.0000000  )
        10           Pt  tau(  10) = (  1.0000000  0.2500000  0.1422636  )
        11           Pt  tau(  11) = (  0.7500000  0.0000000  0.1422636  )
        12           Pt  tau(  12) = (  0.7500000  0.2500000  0.0000000  )
        13           Pt  tau(  13) = (  0.5000000  0.5000000  0.0000000  )
        14           Pt  tau(  14) = (  1.0000000  0.7500000  0.1422636  )
        15           Pt  tau(  15) = (  0.7500000  0.5000000  0.1422636  )
        16           Pt  tau(  16) = (  0.7500000  0.7500000  0.0000000  )

     number of k points=    10  Gaussian smearing, width (Ry)=  0.0030
                       cart. coord. in units 2pi/alat
        k(    1) = (   0.0000000   0.0000000   0.0000000), wk =   0.0555556
        k(    2) = (   0.0000000   0.1666667   0.0000000), wk =   0.2222222
        k(    3) = (   0.0000000   0.3333333   0.0000000), wk =   0.2222222
        k(    4) = (   0.0000000  -0.5000000   0.0000000), wk =   0.1111111
        k(    5) = (   0.1666667   0.1666667   0.0000000), wk =   0.2222222
        k(    6) = (   0.1666667   0.3333333   0.0000000), wk =   0.4444444
        k(    7) = (   0.1666667  -0.5000000   0.0000000), wk =   0.2222222
        k(    8) = (   0.3333333   0.3333333   0.0000000), wk =   0.2222222
        k(    9) = (   0.3333333  -0.5000000   0.0000000), wk =   0.2222222
        k(   10) = (  -0.5000000  -0.5000000   0.0000000), wk =   0.0555556

                       cryst. coord.
        k(    1) = (   0.0000000   0.0000000   0.0000000), wk =   0.0555556
        k(    2) = (   0.0000000   0.1666667   0.0000000), wk =   0.2222222
        k(    3) = (   0.0000000   0.3333333   0.0000000), wk =   0.2222222
        k(    4) = (   0.0000000  -0.5000000   0.0000000), wk =   0.1111111
        k(    5) = (   0.1666667   0.1666667   0.0000000), wk =   0.2222222
        k(    6) = (   0.1666667   0.3333333   0.0000000), wk =   0.4444444
        k(    7) = (   0.1666667  -0.5000000   0.0000000), wk =   0.2222222
        k(    8) = (   0.3333333   0.3333333   0.0000000), wk =   0.2222222
        k(    9) = (   0.3333333  -0.5000000   0.0000000), wk =   0.2222222
        k(   10) = (  -0.5000000  -0.5000000   0.0000000), wk =   0.0555556

     Dense  grid:   523697 G-vectors     FFT dimensions: (  90,  90, 150)

     Smooth grid:   132301 G-vectors     FFT dimensions: (  54,  54,  96)

     Dynamical RAM for                 wfc:       1.21 MB

     Dynamical RAM for     wfc (w. buffer):      13.36 MB

     Dynamical RAM for           str. fact:       0.25 MB

     Dynamical RAM for           local pot:       0.00 MB

     Dynamical RAM for          nlocal pot:       2.27 MB

     Dynamical RAM for                qrad:       1.39 MB

     Dynamical RAM for          rho,v,vnew:       1.68 MB

     Dynamical RAM for               rhoin:       0.56 MB

     Dynamical RAM for            rho*nmix:       4.00 MB

     Dynamical RAM for           G-vectors:       0.97 MB

     Dynamical RAM for          h,s,v(r/c):       0.17 MB

     Dynamical RAM for          <psi|beta>:       0.68 MB

     Dynamical RAM for                 psi:       2.43 MB

     Dynamical RAM for                hpsi:       2.43 MB

     Dynamical RAM for                spsi:       2.43 MB

     Dynamical RAM for      wfcinit/wfcrot:       3.87 MB

     Dynamical RAM for           addusdens:      50.46 MB

     Dynamical RAM for          addusforce:      58.14 MB

     Dynamical RAM for         addusstress:      50.21 MB

     Estimated static dynamical RAM per process >      26.52 MB

     Estimated max dynamical RAM per process >      84.66 MB

     Estimated total dynamical RAM >       2.65 GB

     Initial potential from superposition of free atoms

     starting charge  247.99982, renormalised to  256.00000

     negative rho (up, down):  3.024E+00 0.000E+00
     Starting wfcs are  192 randomized atomic wfcs

     total cpu time spent up to now is        2.3 secs

     Self-consistent Calculation

     iteration #  1     ecut=    30.00 Ry     beta= 0.30
     Davidson diagonalization with overlap
     ethr =  1.00E-02,  avg # of iterations =  7.5

     negative rho (up, down):  2.871E+00 0.000E+00

     total cpu time spent up to now is        8.2 secs

     total energy              =   -3363.57671430 Ry
     estimated scf accuracy    <      30.13351201 Ry

     iteration #  2     ecut=    30.00 Ry     beta= 0.30
     Davidson diagonalization with overlap
     ethr =  1.00E-02,  avg # of iterations =  2.9

     negative rho (up, down):  2.857E+00 0.000E+00

     total cpu time spent up to now is       12.8 secs

     total energy              =   -3369.35287717 Ry
     estimated scf accuracy    <       5.02726603 Ry

     iteration #  3     ecut=    30.00 Ry     beta= 0.30
     Davidson diagonalization with overlap
     ethr =  1.96E-03,  avg # of iterations =  2.4

     negative rho (up, down):  2.830E+00 0.000E+00

     total cpu time spent up to now is       17.0 secs

     total energy              =   -3369.91473972 Ry
     estimated scf accuracy    <       0.24806716 Ry

     iteration #  4     ecut=    30.00 Ry     beta= 0.30
     Davidson diagonalization with overlap
     ethr =  9.69E-05,  avg # of iterations =  7.0

     negative rho (up, down):  2.810E+00 0.000E+00

     total cpu time spent up to now is       23.0 secs

     total energy              =   -3369.94114886 Ry
     estimated scf accuracy    <       0.05502631 Ry

     iteration #  5     ecut=    30.00 Ry     beta= 0.30
     Davidson diagonalization with overlap
     ethr =  2.15E-05,  avg # of iterations =  4.9

     negative rho (up, down):  2.808E+00 0.000E+00

     total cpu time spent up to now is       28.4 secs

     total energy              =   -3369.94625217 Ry
     estimated scf accuracy    <       0.17269936 Ry

     iteration #  6     ecut=    30.00 Ry     beta= 0.30
     Davidson diagonalization with overlap
     ethr =  2.15E-05,  avg # of iterations =  1.1

     negative rho (up, down):  2.806E+00 0.000E+00

     total cpu time spent up to now is       31.6 secs

     total energy              =   -3369.94902516 Ry
     estimated scf accuracy    <       0.02383454 Ry

     iteration #  7     ecut=    30.00 Ry     beta= 0.30
     Davidson diagonalization with overlap
     ethr =  9.31E-06,  avg # of iterations =  3.3

     negative rho (up, down):  2.804E+00 0.000E+00

     total cpu time spent up to now is       35.4 secs

     total energy              =   -3369.94920321 Ry
     estimated scf accuracy    <       0.00846623 Ry

     iteration #  8     ecut=    30.00 Ry     beta= 0.30
     Davidson diagonalization with overlap
     ethr =  3.31E-06,  avg # of iterations =  3.0

     negative rho (up, down):  2.804E+00 0.000E+00

     total cpu time spent up to now is       39.4 secs

     total energy              =   -3369.94994391 Ry
     estimated scf accuracy    <       0.00192161 Ry

     iteration #  9     ecut=    30.00 Ry     beta= 0.30
     Davidson diagonalization with overlap
     ethr =  7.51E-07,  avg # of iterations =  1.1

     negative rho (up, down):  2.802E+00 0.000E+00

     total cpu time spent up to now is       42.7 secs

     total energy              =   -3369.95012813 Ry
     estimated scf accuracy    <       0.00065242 Ry

     iteration # 10     ecut=    30.00 Ry     beta= 0.30
     Davidson diagonalization with overlap
     ethr =  2.55E-07,  avg # of iterations =  2.8

     negative rho (up, down):  2.802E+00 0.000E+00

     total cpu time spent up to now is       46.6 secs

     total energy              =   -3369.95016688 Ry
     estimated scf accuracy    <       0.00023786 Ry

     iteration # 11     ecut=    30.00 Ry     beta= 0.30
     Davidson diagonalization with overlap
     ethr =  9.29E-08,  avg # of iterations =  2.0

     negative rho (up, down):  2.802E+00 0.000E+00

     total cpu time spent up to now is       50.7 secs

     total energy              =   -3369.95014354 Ry
     estimated scf accuracy    <       0.00027706 Ry

     iteration # 12     ecut=    30.00 Ry     beta= 0.30
     Davidson diagonalization with overlap
     ethr =  9.29E-08,  avg # of iterations =  2.0

     negative rho (up, down):  2.802E+00 0.000E+00

     total cpu time spent up to now is       54.9 secs

     total energy              =   -3369.95017876 Ry
     estimated scf accuracy    <       0.00011950 Ry

     iteration # 13     ecut=    30.00 Ry     beta= 0.30
     Davidson diagonalization with overlap
     ethr =  4.67E-08,  avg # of iterations =  1.0

     negative rho (up, down):  2.802E+00 0.000E+00

     total cpu time spent up to now is       58.2 secs

     total energy              =   -3369.95018882 Ry
     estimated scf accuracy    <       0.00000327 Ry

     iteration # 14     ecut=    30.00 Ry     beta= 0.30
     Davidson diagonalization with overlap
     ethr =  1.28E-09,  avg # of iterations =  2.0

     negative rho (up, down):  2.802E+00 0.000E+00

     total cpu time spent up to now is       62.1 secs

     End of self-consistent calculation

          k = 0.0000 0.0000 0.0000 ( 16575 PWs)   bands (ev):

   -50.3336 -50.3336 -50.3177 -50.3177 -50.3177 -50.3177 -50.2296 -50.2296
   -50.2296 -50.2296 -50.2194 -50.2194 -50.2151 -50.2151 -50.2151 -50.2151
   -50.1878 -50.1878 -50.1877 -50.1877 -50.1344 -50.1344 -50.1344 -50.1344
   -50.1246 -50.1246 -50.1138 -50.0698 -50.0698 -50.0698 -50.0698 -50.0485
   -50.0485 -50.0258 -50.0257 -50.0257 -50.0257 -49.9790 -49.9790 -49.9773
   -49.9773 -49.9773 -49.9772 -49.9363 -49.9363 -49.9362 -49.9362 -49.9207
    -5.5658  -3.5298  -3.2734  -3.2734  -3.2734  -3.2734  -3.2447  -3.2447
    -3.2447  -3.2447  -3.1287  -2.9977  -2.9977  -2.4874  -2.4874  -1.9967
    -1.9967  -1.9967  -1.9967  -1.7864  -1.7864  -1.7864  -1.7864  -1.7832
    -1.2287  -1.2287  -1.2287  -1.2287  -1.1212  -1.1212  -1.1212  -1.1212
    -0.6070  -0.6070  -0.6070  -0.6070  -0.4833  -0.4833  -0.4833  -0.4833
    -0.2920  -0.2920  -0.2920  -0.2920  -0.2880  -0.2879  -0.2879  -0.2879
    -0.0897  -0.0897   0.1904   0.4284   0.4284   0.4284   0.4284   0.5326
     0.5326   0.5326   0.5327   0.6699   0.6699   0.6699   0.6699   0.7584
     0.7584   0.9184   1.3240   1.3832   1.3832   1.3832   1.3832   1.4282
     1.4282   1.6719   1.6719   1.6720   1.6720   1.7141   1.7141   1.7141
     1.7141   1.9400   1.9400   2.0917   2.8757   2.8757   3.7873   3.7873
     3.7873   3.7873   3.9091   3.9091   3.9091   3.9091   4.0038   6.2105
     6.2105   6.2106   6.2106   6.4931   6.4931   7.4776   7.8276   8.0012
     8.0013   8.0013

     occupation numbers 
     1.0000   1.0000   1.0000   1.0000   1.0000   1.0000   1.0000   1.0000
     1.0000   1.0000   1.0000   1.0000   1.0000   1.0000   1.0000   1.0000
     1.0000   1.0000   1.0000   1.0000   1.0000   1.0000   1.0000   1.0000
     1.0000   1.0000   1.0000   1.0000   1.0000   1.0000   1.0000   1.0000
     1.0000   1.0000   1.0000   1.0000   1.0000   1.0000   1.0000   1.0000
     1.0000   1.0000   1.0000   1.0000   1.0000   1.0000   1.0000   1.0000
     1.0000   1.0000   1.0000   1.0000   1.0000   1.0000   1.0000   1.0000
     1.0000   1.0000   1.0000   1.0000   1.0000   1.0000   1.0000   1.0000
     1.0000   1.0000   1.0000   1.0000   1.0000   1.0000   1.0000   1.0000
     1.0000   1.0000   1.0000   1.0000   1.0000   1.0000   1.0000   1.0000
     1.0000   1.0000   1.0000   1.0000   1.0000   1.0000   1.0000   1.0000
     1.0000   1.0000   1.0000   1.0000   1.0000   1.0000   1.0000   1.0000
     1.0000   1.0000   1.0000   1.0000   1.0000   1.0000   1.0000   1.0000
     1.0000   1.0000   1.0000   1.0000   1.0000   1.0000   1.0000   1.0000
     1.0000   1.0000   1.0000   1.0000   1.0000   1.0000   1.0000   1.0000
     1.0000   1.0000   1.0000   1.0000   1.0000   1.0000   1.0000   1.0000
     1.0000   0.0302   0.0302   0.0000   0.0000   0.0000   0.0000   0.0000
     0.0000   0.0000   0.0000   0.0000   0.0000   0.0000   0.0000   0.0000
     0.0000   0.0000   0.0000   0.0000   0.0000   0.0000   0.0000   0.0000
     0.0000   0.0000

          k = 0.0000 0.1667 0.0000 ( 16540 PWs)   bands (ev):

   -50.3300 -50.3297 -50.3173 -50.3173 -50.3100 -50.3100 -50.2566 -50.2461
   -50.2460 -50.2459 -50.2264 -50.2263 -50.2188 -50.2165 -50.2026 -50.1987
   -50.1844 -50.1748 -50.1705 -50.1704 -50.1564 -50.1282 -50.1274 -50.1244
   -50.1243 -50.1153 -50.1122 -50.0785 -50.0785 -50.0685 -50.0685 -50.0514
   -50.0497 -50.0368 -50.0241 -50.0241 -50.0141 -49.9890 -49.9890 -49.9806
   -49.9772 -49.9662 -49.9662 -49.9448 -49.9376 -49.9376 -49.9293 -49.9206
    -5.4819  -3.7614  -3.4535  -3.3226  -3.3226  -3.2490  -3.2490  -3.1595
    -3.1595  -3.0813  -2.9580  -2.9406  -2.8956  -2.4667  -2.4620  -2.1584
    -2.1431  -2.1431  -2.0164  -1.9898  -1.9229  -1.7406  -1.7405  -1.7369
    -1.5612  -1.3308  -1.3308  -1.1059  -1.1059  -1.0951  -1.0951  -0.7653
    -0.7053  -0.6478  -0.6077  -0.5932  -0.5932  -0.3912  -0.3911  -0.3877
    -0.3876  -0.3683  -0.3683  -0.3651  -0.3651  -0.2388  -0.1893  -0.1256
    -0.0806   0.1316   0.1952   0.2611   0.5403   0.5403   0.5570   0.5570
     0.6006   0.6006   0.6609   0.6973   0.7365   0.7365   0.7555   0.8181
     0.8653   1.0711   1.2179   1.3149   1.3407   1.3407   1.4053   1.4183
     1.5681   1.5682   1.5791   1.6830   1.7158   1.7333   1.7333   1.7533
     1.7533   1.7992   1.9282   2.0420   2.5952   2.7612   3.1111   3.1111
     3.2194   3.9401   3.9401   4.2583   4.4220   4.4220   4.6966   5.8185
     5.8185   5.8192   6.8308   6.9461   6.9461   7.1469   7.5531   7.8873
     8.0423   8.0424

     occupation numbers 
     1.0000   1.0000   1.0000   1.0000   1.0000   1.0000   1.0000   1.0000
     1.0000   1.0000   1.0000   1.0000   1.0000   1.0000   1.0000   1.0000
     1.0000   1.0000   1.0000   1.0000   1.0000   1.0000   1.0000   1.0000
     1.0000   1.0000   1.0000   1.0000   1.0000   1.0000   1.0000   1.0000
     1.0000   1.0000   1.0000   1.0000   1.0000   1.0000   1.0000   1.0000
     1.0000   1.0000   1.0000   1.0000   1.0000   1.0000   1.0000   1.0000
     1.0000   1.0000   1.0000   1.0000   1.0000   1.0000   1.0000   1.0000
     1.0000   1.0000   1.0000   1.0000   1.0000   1.0000   1.0000   1.0000
     1.0000   1.0000   1.0000   1.0000   1.0000   1.0000   1.0000   1.0000
     1.0000   1.0000   1.0000   1.0000   1.0000   1.0000   1.0000   1.0000
     1.0000   1.0000   1.0000   1.0000   1.0000   1.0000   1.0000   1.0000
     1.0000   1.0000   1.0000   1.0000   1.0000   1.0000   1.0000   1.0000
     1.0000   1.0000   1.0000   1.0000   1.0000   1.0000   1.0000   1.0000
     1.0000   1.0000   1.0000   1.0000   1.0000   1.0000   1.0000   1.0000
     1.0000   1.0000   1.0000   1.0000   1.0000   1.0000   1.0000   1.0000
     1.0000   1.0000   1.0000   1.0000   1.0000   1.0000   1.0000   1.0000
     1.0000   0.9987   0.0707   0.0000   0.0000   0.0000   0.0000   0.0000
     0.0000   0.0000   0.0000   0.0000   0.0000   0.0000   0.0000   0.0000
     0.0000   0.0000   0.0000   0.0000   0.0000   0.0000   0.0000   0.0000
     0.0000   0.0000

          k = 0.0000 0.3333 0.0000 ( 16528 PWs)   bands (ev):

   -50.3197 -50.3179 -50.3089 -50.3089 -50.2950 -50.2950 -50.2817 -50.2747
   -50.2711 -50.2711 -50.2497 -50.2496 -50.2168 -50.2080 -50.2073 -50.1773
   -50.1768 -50.1608 -50.1565 -50.1425 -50.1425 -50.1388 -50.1353 -50.1213
   -50.1050 -50.1050 -50.0942 -50.0942 -50.0915 -50.0744 -50.0744 -50.0600
   -50.0519 -50.0459 -50.0192 -50.0191 -50.0027 -50.0006 -50.0006 -49.9854
   -49.9717 -49.9563 -49.9562 -49.9544 -49.9416 -49.9416 -49.9245 -49.9207
    -5.2346  -4.3277  -3.3222  -3.3222  -3.2653  -3.2653  -3.2295  -2.9759
    -2.9759  -2.9419  -2.8572  -2.7750  -2.7510  -2.4388  -2.4318  -2.4318
    -2.4291  -2.3923  -2.3874  -2.2126  -2.1354  -1.9420  -1.6427  -1.6427
    -1.6018  -1.4204  -1.4204  -1.0764  -1.0347  -1.0347  -0.9309  -0.9309
    -0.7087  -0.6374  -0.6374  -0.6216  -0.6216  -0.5473  -0.5473  -0.5326
    -0.5326  -0.5277  -0.3837  -0.2280  -0.1620  -0.0317  -0.0317   0.0942
     0.2023   0.2498   0.4733   0.5197   0.5197   0.5197   0.5440   0.7366
     0.7414   0.7414   0.7580   0.7580   0.8539   0.8812   0.8990   0.8990
     1.1622   1.1747   1.2982   1.2982   1.3129   1.3290   1.3395   1.3395
     1.3838   1.3868   1.5818   1.6153   1.6153   1.7787   1.8132   1.8938
     1.9337   1.9372   1.9372   1.9598   2.1727   2.4648   2.5744   2.5744
     2.6087   4.0407   4.0407   4.4671   4.4671   4.5406   4.8433   5.6141
     6.3348   6.3610   6.3610   7.6380   7.6947   7.6947   7.7794   8.0654
     8.1311   8.1312

     occupation numbers 
     1.0000   1.0000   1.0000   1.0000   1.0000   1.0000   1.0000   1.0000
     1.0000   1.0000   1.0000   1.0000   1.0000   1.0000   1.0000   1.0000
     1.0000   1.0000   1.0000   1.0000   1.0000   1.0000   1.0000   1.0000
     1.0000   1.0000   1.0000   1.0000   1.0000   1.0000   1.0000   1.0000
     1.0000   1.0000   1.0000   1.0000   1.0000   1.0000   1.0000   1.0000
     1.0000   1.0000   1.0000   1.0000   1.0000   1.0000   1.0000   1.0000
     1.0000   1.0000   1.0000   1.0000   1.0000   1.0000   1.0000   1.0000
     1.0000   1.0000   1.0000   1.0000   1.0000   1.0000   1.0000   1.0000
     1.0000   1.0000   1.0000   1.0000   1.0000   1.0000   1.0000   1.0000
     1.0000   1.0000   1.0000   1.0000   1.0000   1.0000   1.0000   1.0000
     1.0000   1.0000   1.0000   1.0000   1.0000   1.0000   1.0000   1.0000
     1.0000   1.0000   1.0000   1.0000   1.0000   1.0000   1.0000   1.0000
     1.0000   1.0000   1.0000   1.0000   1.0000   1.0000   1.0000   1.0000
     1.0000   1.0000   1.0000   1.0000   1.0000   1.0000   1.0000   1.0000
     1.0000   1.0000   1.0000   1.0000   1.0000   1.0000   1.0000   1.0000
     1.0000   1.0000   1.0000   1.0000   1.0000   0.9999   0.9940   0.3903
     0.0484   0.0374   0.0374   0.0052   0.0000   0.0000   0.0000   0.0000
     0.0000   0.0000   0.0000   0.0000   0.0000   0.0000   0.0000   0.0000
     0.0000   0.0000   0.0000   0.0000   0.0000   0.0000   0.0000   0.0000
     0.0000   0.0000

          k = 0.0000-0.5000 0.0000 ( 16478 PWs)   bands (ev):

   -50.3032 -50.3032 -50.2992 -50.2992 -50.2930 -50.2930 -50.2930 -50.2930
   -50.2741 -50.2741 -50.2741 -50.2741 -50.2132 -50.2132 -50.1945 -50.1945
   -50.1555 -50.1555 -50.1470 -50.1470 -50.1348 -50.1348 -50.1161 -50.1161
   -50.1161 -50.1161 -50.0870 -50.0870 -50.0870 -50.0870 -50.0737 -50.0737
   -50.0511 -50.0511 -50.0111 -50.0111 -50.0110 -50.0110 -49.9929 -49.9929
   -49.9638 -49.9638 -49.9479 -49.9479 -49.9478 -49.9478 -49.9218 -49.9218
    -4.8392  -4.8392  -3.2947  -3.2947  -3.2946  -3.2946  -2.8749  -2.8749
    -2.7601  -2.7601  -2.7269  -2.7269  -2.7269  -2.7269  -2.7197  -2.7197
    -2.5199  -2.5198  -2.2727  -2.2727  -2.2272  -2.2272  -1.5246  -1.5246
    -1.5246  -1.5246  -1.3788  -1.3788  -0.8813  -0.8813  -0.8813  -0.8813
    -0.7189  -0.7189  -0.7189  -0.7189  -0.6394  -0.6394  -0.6394  -0.6394
    -0.5681  -0.5681  -0.3750  -0.3750   0.1733   0.1734   0.3122   0.3122
     0.3122   0.3122   0.3398   0.3398   0.4329   0.4329   0.6649   0.6649
     0.8414   0.8415   0.8415   0.8415   1.1046   1.1046   1.1046   1.1046
     1.1178   1.1178   1.2261   1.2261   1.3207   1.3207   1.4080   1.4080
     1.4080   1.4080   1.4231   1.4232   1.4345   1.4345   1.8422   1.8422
     2.1006   2.1006   2.1013   2.1013   2.1974   2.1974   2.1974   2.1974
     3.2460   3.2460   4.2262   4.2262   4.2262   4.2262   5.5604   5.5604
     6.6863   6.6863   7.5191   7.5191   7.5191   7.5192   8.1132   8.1133
     8.1548   8.1548

     occupation numbers 
     1.0000   1.0000   1.0000   1.0000   1.0000   1.0000   1.0000   1.0000
     1.0000   1.0000   1.0000   1.0000   1.0000   1.0000   1.0000   1.0000
     1.0000   1.0000   1.0000   1.0000   1.0000   1.0000   1.0000   1.0000
     1.0000   1.0000   1.0000   1.0000   1.0000   1.0000   1.0000   1.0000
     1.0000   1.0000   1.0000   1.0000   1.0000   1.0000   1.0000   1.0000
     1.0000   1.0000   1.0000   1.0000   1.0000   1.0000   1.0000   1.0000
     1.0000   1.0000   1.0000   1.0000   1.0000   1.0000   1.0000   1.0000
     1.0000   1.0000   1.0000   1.0000   1.0000   1.0000   1.0000   1.0000
     1.0000   1.0000   1.0000   1.0000   1.0000   1.0000   1.0000   1.0000
     1.0000   1.0000   1.0000   1.0000   1.0000   1.0000   1.0000   1.0000
     1.0000   1.0000   1.0000   1.0000   1.0000   1.0000   1.0000   1.0000
     1.0000   1.0000   1.0000   1.0000   1.0000   1.0000   1.0000   1.0000
     1.0000   1.0000   1.0000   1.0000   1.0000   1.0000   1.0000   1.0000
     1.0000   1.0000   1.0000   1.0000   1.0000   1.0000   1.0000   1.0000
     1.0000   1.0000   1.0000   1.0000   1.0000   1.0000   1.0000   1.0000
     1.0000   1.0000   1.0000   1.0000   1.0000   1.0000   0.9343   0.9343
     0.0000   0.0000   0.0000   0.0000   0.0000   0.0000   0.0000   0.0000
     0.0000   0.0000   0.0000   0.0000   0.0000   0.0000   0.0000   0.0000
     0.0000   0.0000   0.0000   0.0000   0.0000   0.0000   0.0000   0.0000
     0.0000   0.0000

          k = 0.1667 0.1667 0.0000 ( 16569 PWs)   bands (ev):

   -50.3268 -50.3268 -50.3159 -50.3159 -50.3109 -50.2964 -50.2682 -50.2682
   -50.2547 -50.2547 -50.2228 -50.2227 -50.2154 -50.2154 -50.1970 -50.1970
   -50.1848 -50.1847 -50.1554 -50.1553 -50.1477 -50.1477 -50.1395 -50.1222
   -50.1179 -50.1022 -50.1022 -50.0830 -50.0830 -50.0808 -50.0611 -50.0554
   -50.0486 -50.0355 -50.0354 -50.0123 -50.0122 -50.0013 -49.9788 -49.9788
   -49.9772 -49.9772 -49.9561 -49.9464 -49.9463 -49.9305 -49.9305 -49.9207
    -5.4007  -3.7486  -3.7485  -3.4719  -3.3973  -3.1335  -3.1262  -3.1261
    -3.0173  -2.9017  -2.9017  -2.8988  -2.8987  -2.4429  -2.4429  -2.3678
    -2.3678  -2.1135  -2.1135  -1.8695  -1.8695  -1.8301  -1.8301  -1.6918
    -1.5367  -1.5367  -1.4433  -1.1811  -1.1811  -0.9922  -0.7464  -0.7464
    -0.7086  -0.7086  -0.6379  -0.6379  -0.5880  -0.5880  -0.5511  -0.5510
    -0.3710  -0.3710  -0.3374  -0.2612  -0.1943  -0.0768  -0.0354  -0.0354
     0.0537   0.0538   0.1981   0.3011   0.3011   0.3141   0.3809   0.6985
     0.6985   0.7625   0.7625   0.8010   0.8010   0.9080   0.9081   0.9146
     0.9146   1.1503   1.1909   1.2514   1.2514   1.3820   1.3820   1.4942
     1.4942   1.5013   1.5013   1.5556   1.5751   1.7857   1.7858   1.8839
     1.9055   1.9055   1.9939   2.0094   2.3341   2.4873   2.4873   3.2340
     3.2340   4.0771   4.0771   4.1148   4.4689   4.7545   4.7545   6.1483
     6.1483   6.2307   6.3759   6.3760   7.2025   7.2025   7.4474   7.6283
     7.9467   8.9327

     occupation numbers 
     1.0000   1.0000   1.0000   1.0000   1.0000   1.0000   1.0000   1.0000
     1.0000   1.0000   1.0000   1.0000   1.0000   1.0000   1.0000   1.0000
     1.0000   1.0000   1.0000   1.0000   1.0000   1.0000   1.0000   1.0000
     1.0000   1.0000   1.0000   1.0000   1.0000   1.0000   1.0000   1.0000
     1.0000   1.0000   1.0000   1.0000   1.0000   1.0000   1.0000   1.0000
     1.0000   1.0000   1.0000   1.0000   1.0000   1.0000   1.0000   1.0000
     1.0000   1.0000   1.0000   1.0000   1.0000   1.0000   1.0000   1.0000
     1.0000   1.0000   1.0000   1.0000   1.0000   1.0000   1.0000   1.0000
     1.0000   1.0000   1.0000   1.0000   1.0000   1.0000   1.0000   1.0000
     1.0000   1.0000   1.0000   1.0000   1.0000   1.0000   1.0000   1.0000
     1.0000   1.0000   1.0000   1.0000   1.0000   1.0000   1.0000   1.0000
     1.0000   1.0000   1.0000   1.0000   1.0000   1.0000   1.0000   1.0000
     1.0000   1.0000   1.0000   1.0000   1.0000   1.0000   1.0000   1.0000
     1.0000   1.0000   1.0000   1.0000   1.0000   1.0000   1.0000   1.0000
     1.0000   1.0000   1.0000   1.0000   1.0000   1.0000   1.0000   1.0000
     1.0000   1.0000   1.0000   1.0000   1.0000   0.9997   0.9997   0.5253
     0.2470   0.2470   0.0001   0.0000   0.0000   0.0000   0.0000   0.0000
     0.0000   0.0000   0.0000   0.0000   0.0000   0.0000   0.0000   0.0000
     0.0000   0.0000   0.0000   0.0000   0.0000   0.0000   0.0000   0.0000
     0.0000   0.0000

          k = 0.1667 0.3333 0.0000 ( 16551 PWs)   bands (ev):

   -50.3186 -50.3171 -50.3139 -50.3072 -50.2970 -50.2883 -50.2877 -50.2802
   -50.2761 -50.2731 -50.2509 -50.2228 -50.2120 -50.2055 -50.1992 -50.1968
   -50.1702 -50.1688 -50.1578 -50.1562 -50.1411 -50.1292 -50.1291 -50.1271
   -50.1229 -50.1038 -50.0938 -50.0903 -50.0840 -50.0829 -50.0611 -50.0607
   -50.0502 -50.0448 -50.0311 -50.0133 -50.0069 -50.0009 -49.9884 -49.9835
   -49.9734 -49.9665 -49.9559 -49.9507 -49.9471 -49.9340 -49.9255 -49.9211
    -5.1621  -4.2909  -3.7125  -3.5799  -3.2366  -3.0548  -3.0373  -2.9201
    -2.8852  -2.8252  -2.8060  -2.7395  -2.7372  -2.6859  -2.6384  -2.3742
    -2.3725  -2.3382  -2.2409  -2.1400  -2.1035  -1.9168  -1.7315  -1.6833
    -1.5560  -1.5230  -1.4472  -1.3176  -1.0847  -1.0409  -0.8662  -0.8223
    -0.7970  -0.7769  -0.7394  -0.6088  -0.5749  -0.5574  -0.5380  -0.3986
    -0.3466  -0.3424  -0.3144  -0.2773  -0.1655  -0.1184   0.0329   0.1172
     0.1987   0.2678   0.3215   0.3235   0.3797   0.4131   0.4161   0.5519
     0.6845   0.8364   0.8684   0.9549   0.9953   1.0277   1.0311   1.0498
     1.0992   1.1756   1.1974   1.2174   1.2283   1.2675   1.3099   1.3489
     1.4095   1.4162   1.4344   1.4660   1.6672   1.6885   1.8665   1.8900
     1.9051   1.9238   2.0117   2.0184   2.2201   2.3441   2.5564   2.6153
     3.2895   3.4917   3.6901   4.8915   4.9305   4.9894   5.0990   5.7068
     5.9764   6.4088   6.8714   7.1561   7.3554   7.3725   7.6544   7.8534
     8.1242   8.2318

     occupation numbers 
     1.0000   1.0000   1.0000   1.0000   1.0000   1.0000   1.0000   1.0000
     1.0000   1.0000   1.0000   1.0000   1.0000   1.0000   1.0000   1.0000
     1.0000   1.0000   1.0000   1.0000   1.0000   1.0000   1.0000   1.0000
     1.0000   1.0000   1.0000   1.0000   1.0000   1.0000   1.0000   1.0000
     1.0000   1.0000   1.0000   1.0000   1.0000   1.0000   1.0000   1.0000
     1.0000   1.0000   1.0000   1.0000   1.0000   1.0000   1.0000   1.0000
     1.0000   1.0000   1.0000   1.0000   1.0000   1.0000   1.0000   1.0000
     1.0000   1.0000   1.0000   1.0000   1.0000   1.0000   1.0000   1.0000
     1.0000   1.0000   1.0000   1.0000   1.0000   1.0000   1.0000   1.0000
     1.0000   1.0000   1.0000   1.0000   1.0000   1.0000   1.0000   1.0000
     1.0000   1.0000   1.0000   1.0000   1.0000   1.0000   1.0000   1.0000
     1.0000   1.0000   1.0000   1.0000   1.0000   1.0000   1.0000   1.0000
     1.0000   1.0000   1.0000   1.0000   1.0000   1.0000   1.0000   1.0000
     1.0000   1.0000   1.0000   1.0000   1.0000   1.0000   1.0000   1.0000
     1.0000   1.0000   1.0000   1.0000   1.0000   1.0000   1.0000   1.0000
     1.0000   1.0000   1.0000   1.0000   1.0000   1.0000   0.7476   0.4424
     0.2514   0.0941   0.0000   0.0000   0.0000   0.0000   0.0000   0.0000
     0.0000   0.0000   0.0000   0.0000   0.0000   0.0000   0.0000   0.0000
     0.0000   0.0000   0.0000   0.0000   0.0000   0.0000   0.0000   0.0000
     0.0000   0.0000

          k = 0.1667-0.5000 0.0000 ( 16522 PWs)   bands (ev):

   -50.3055 -50.3055 -50.3040 -50.3040 -50.3013 -50.3013 -50.2921 -50.2921
   -50.2765 -50.2765 -50.2508 -50.2507 -50.2059 -50.2058 -50.1900 -50.1900
   -50.1766 -50.1766 -50.1445 -50.1445 -50.1297 -50.1297 -50.1294 -50.1294
   -50.1097 -50.1097 -50.1068 -50.1068 -50.0691 -50.0691 -50.0686 -50.0686
   -50.0504 -50.0504 -50.0237 -50.0237 -49.9986 -49.9986 -49.9911 -49.9911
   -49.9654 -49.9654 -49.9575 -49.9575 -49.9397 -49.9397 -49.9225 -49.9225
    -4.7816  -4.7816  -3.6571  -3.6571  -2.9910  -2.9910  -2.9755  -2.9755
    -2.8696  -2.8696  -2.7244  -2.7243  -2.6127  -2.6127  -2.5165  -2.5165
    -2.4953  -2.4953  -2.2655  -2.2655  -2.2061  -2.2061  -1.5920  -1.5920
    -1.5293  -1.5293  -1.3343  -1.3343  -1.2725  -1.2725  -0.7542  -0.7542
    -0.7339  -0.7339  -0.7079  -0.7079  -0.6375  -0.6375  -0.4804  -0.4804
    -0.4707  -0.4707  -0.2390  -0.2390  -0.0905  -0.0905   0.1510   0.1510
     0.3448   0.3449   0.4518   0.4518   0.4676   0.4676   0.5886   0.5886
     0.6283   0.6283   0.8610   0.8610   1.0818   1.0818   1.1164   1.1164
     1.2002   1.2002   1.2405   1.2405   1.2482   1.2482   1.2855   1.2855
     1.3673   1.3673   1.4160   1.4160   1.4708   1.4708   1.9223   1.9223
     1.9518   1.9518   1.9905   1.9906   2.0957   2.0957   2.8956   2.8956
     3.4219   3.4219   3.6265   3.6265   5.2029   5.2029   5.6623   5.6623
     6.7535   6.7536   6.7788   6.7788   7.5519   7.5519   7.9615   7.9617
     8.2265   8.2265

     occupation numbers 
     1.0000   1.0000   1.0000   1.0000   1.0000   1.0000   1.0000   1.0000
     1.0000   1.0000   1.0000   1.0000   1.0000   1.0000   1.0000   1.0000
     1.0000   1.0000   1.0000   1.0000   1.0000   1.0000   1.0000   1.0000
     1.0000   1.0000   1.0000   1.0000   1.0000   1.0000   1.0000   1.0000
     1.0000   1.0000   1.0000   1.0000   1.0000   1.0000   1.0000   1.0000
     1.0000   1.0000   1.0000   1.0000   1.0000   1.0000   1.0000   1.0000
     1.0000   1.0000   1.0000   1.0000   1.0000   1.0000   1.0000   1.0000
     1.0000   1.0000   1.0000   1.0000   1.0000   1.0000   1.0000   1.0000
     1.0000   1.0000   1.0000   1.0000   1.0000   1.0000   1.0000   1.0000
     1.0000   1.0000   1.0000   1.0000   1.0000   1.0000   1.0000   1.0000
     1.0000   1.0000   1.0000   1.0000   1.0000   1.0000   1.0000   1.0000
     1.0000   1.0000   1.0000   1.0000   1.0000   1.0000   1.0000   1.0000
     1.0000   1.0000   1.0000   1.0000   1.0000   1.0000   1.0000   1.0000
     1.0000   1.0000   1.0000   1.0000   1.0000   1.0000   1.0000   1.0000
     1.0000   1.0000   1.0000   1.0000   1.0000   1.0000   1.0000   1.0000
     1.0000   1.0000   1.0000   1.0000   1.0000   1.0000   0.1028   0.1028
     0.0111   0.0111   0.0001   0.0001   0.0000   0.0000   0.0000   0.0000
     0.0000   0.0000   0.0000   0.0000   0.0000   0.0000   0.0000   0.0000
     0.0000   0.0000   0.0000   0.0000   0.0000   0.0000   0.0000   0.0000
     0.0000   0.0000

          k = 0.3333 0.3333 0.0000 ( 16574 PWs)   bands (ev):

   -50.3144 -50.3144 -50.3119 -50.3119 -50.3004 -50.3003 -50.2921 -50.2921
   -50.2787 -50.2517 -50.2279 -50.2279 -50.1982 -50.1982 -50.1945 -50.1945
   -50.1789 -50.1731 -50.1731 -50.1542 -50.1542 -50.1435 -50.1192 -50.1192
   -50.1180 -50.1180 -50.1153 -50.0931 -50.0679 -50.0679 -50.0595 -50.0550
   -50.0494 -50.0419 -50.0418 -50.0258 -49.9956 -49.9955 -49.9781 -49.9781
   -49.9772 -49.9771 -49.9605 -49.9605 -49.9394 -49.9284 -49.9284 -49.9223
    -4.9498  -4.1853  -4.1852  -3.8167  -3.1966  -3.0486  -2.8758  -2.8757
    -2.7932  -2.7932  -2.7168  -2.7168  -2.6646  -2.6646  -2.5486  -2.3648
    -2.3647  -2.3095  -2.3095  -1.9595  -1.9595  -1.8585  -1.8584  -1.8252
    -1.8252  -1.5936  -1.4200  -1.4134  -1.4134  -0.9399  -0.9399  -0.8307
    -0.8307  -0.8020  -0.7367  -0.7367  -0.7316  -0.3203  -0.2339  -0.2338
    -0.2322  -0.2321  -0.1858  -0.1858  -0.1570  -0.0553  -0.0382  -0.0382
     0.0218   0.0411   0.1750   0.3093   0.3093   0.5093   0.5093   0.5296
     0.5296   0.7858   0.9755   0.9755   1.0196   1.0196   1.0274   1.0386
     1.0386   1.0524   1.0525   1.2323   1.2323   1.2950   1.2950   1.3113
     1.3220   1.3220   1.4749   1.5815   1.5815   1.7125   1.7626   1.8383
     1.8383   1.9880   1.9880   2.0191   2.0886   2.6525   2.6525   3.1144
     3.2108   3.2108   4.6325   4.6325   5.3870   5.6323   5.6323   5.9749
     5.9749   6.6223   6.6223   6.8821   6.8821   7.3320   7.3781   7.3781
     8.0745   8.0857

     occupation numbers 
     1.0000   1.0000   1.0000   1.0000   1.0000   1.0000   1.0000   1.0000
     1.0000   1.0000   1.0000   1.0000   1.0000   1.0000   1.0000   1.0000
     1.0000   1.0000   1.0000   1.0000   1.0000   1.0000   1.0000   1.0000
     1.0000   1.0000   1.0000   1.0000   1.0000   1.0000   1.0000   1.0000
     1.0000   1.0000   1.0000   1.0000   1.0000   1.0000   1.0000   1.0000
     1.0000   1.0000   1.0000   1.0000   1.0000   1.0000   1.0000   1.0000
     1.0000   1.0000   1.0000   1.0000   1.0000   1.0000   1.0000   1.0000
     1.0000   1.0000   1.0000   1.0000   1.0000   1.0000   1.0000   1.0000
     1.0000   1.0000   1.0000   1.0000   1.0000   1.0000   1.0000   1.0000
     1.0000   1.0000   1.0000   1.0000   1.0000   1.0000   1.0000   1.0000
     1.0000   1.0000   1.0000   1.0000   1.0000   1.0000   1.0000   1.0000
     1.0000   1.0000   1.0000   1.0000   1.0000   1.0000   1.0000   1.0000
     1.0000   1.0000   1.0000   1.0000   1.0000   1.0000   1.0000   1.0000
     1.0000   1.0000   1.0000   1.0000   1.0000   1.0000   1.0000   1.0000
     1.0000   1.0000   1.0000   1.0000   1.0000   1.0000   1.0000   1.0000
     1.0000   1.0000   1.0000   1.0000   1.0000   1.0000   1.0000   0.9500
     0.9500   0.0002   0.0002   0.0000   0.0000   0.0000   0.0000   0.0000
     0.0000   0.0000   0.0000   0.0000   0.0000   0.0000   0.0000   0.0000
     0.0000   0.0000   0.0000   0.0000   0.0000   0.0000   0.0000   0.0000
     0.0000   0.0000

          k = 0.3333-0.5000 0.0000 ( 16564 PWs)   bands (ev):

   -50.3092 -50.3092 -50.3090 -50.3090 -50.3059 -50.3059 -50.3040 -50.3040
   -50.2551 -50.2551 -50.2236 -50.2236 -50.2034 -50.2034 -50.1870 -50.1870
   -50.1781 -50.1781 -50.1671 -50.1671 -50.1454 -50.1454 -50.1355 -50.1355
   -50.1142 -50.1142 -50.1028 -50.1028 -50.0588 -50.0588 -50.0570 -50.0570
   -50.0491 -50.0491 -50.0360 -50.0360 -49.9873 -49.9873 -49.9857 -49.9857
   -49.9700 -49.9700 -49.9678 -49.9678 -49.9331 -49.9331 -49.9247 -49.9247
    -4.6141  -4.6141  -4.0225  -4.0224  -3.0733  -3.0733  -2.9966  -2.9966
    -2.7307  -2.7307  -2.6397  -2.6397  -2.5569  -2.5569  -2.4861  -2.4861
    -2.1916  -2.1916  -2.1817  -2.1817  -2.1277  -2.1277  -1.7207  -1.7207
    -1.6766  -1.6766  -1.6454  -1.6454  -1.2030  -1.2030  -0.8584  -0.8584
    -0.8219  -0.8219  -0.6659  -0.6659  -0.5256  -0.5256  -0.4328  -0.4328
    -0.1695  -0.1695  -0.1400  -0.1400  -0.1026  -0.1026   0.0819   0.0819
     0.2141   0.2141   0.2588   0.2588   0.3145   0.3145   0.4865   0.4865
     0.7068   0.7068   0.7367   0.7367   0.9630   0.9630   0.9756   0.9756
     0.9924   0.9924   1.0557   1.0557   1.3260   1.3260   1.4156   1.4156
     1.4633   1.4633   1.5389   1.5389   1.5497   1.5497   1.7246   1.7246
     2.0433   2.0433   2.0675   2.0675   2.1229   2.1229   2.7851   2.7851
     3.9257   3.9257   4.3544   4.3545   5.9451   5.9451   5.9538   5.9538
     6.3864   6.3864   6.4431   6.4431   6.9484   6.9484   7.3037   7.3037
     8.1513   8.4398

     occupation numbers 
     1.0000   1.0000   1.0000   1.0000   1.0000   1.0000   1.0000   1.0000
     1.0000   1.0000   1.0000   1.0000   1.0000   1.0000   1.0000   1.0000
     1.0000   1.0000   1.0000   1.0000   1.0000   1.0000   1.0000   1.0000
     1.0000   1.0000   1.0000   1.0000   1.0000   1.0000   1.0000   1.0000
     1.0000   1.0000   1.0000   1.0000   1.0000   1.0000   1.0000   1.0000
     1.0000   1.0000   1.0000   1.0000   1.0000   1.0000   1.0000   1.0000
     1.0000   1.0000   1.0000   1.0000   1.0000   1.0000   1.0000   1.0000
     1.0000   1.0000   1.0000   1.0000   1.0000   1.0000   1.0000   1.0000
     1.0000   1.0000   1.0000   1.0000   1.0000   1.0000   1.0000   1.0000
     1.0000   1.0000   1.0000   1.0000   1.0000   1.0000   1.0000   1.0000
     1.0000   1.0000   1.0000   1.0000   1.0000   1.0000   1.0000   1.0000
     1.0000   1.0000   1.0000   1.0000   1.0000   1.0000   1.0000   1.0000
     1.0000   1.0000   1.0000   1.0000   1.0000   1.0000   1.0000   1.0000
     1.0000   1.0000   1.0000   1.0000   1.0000   1.0000   1.0000   1.0000
     1.0000   1.0000   1.0000   1.0000   1.0000   1.0000   1.0000   1.0000
     1.0000   1.0000   1.0000   1.0000   1.0000   1.0000   1.0000   1.0000
     0.0000   0.0000   0.0000   0.0000   0.0000   0.0000   0.0000   0.0000
     0.0000   0.0000   0.0000   0.0000   0.0000   0.0000   0.0000   0.0000
     0.0000   0.0000   0.0000   0.0000   0.0000   0.0000   0.0000   0.0000
     0.0000   0.0000

          k =-0.5000-0.5000 0.0000 ( 16564 PWs)   bands (ev):

   -50.3094 -50.3094 -50.3094 -50.3094 -50.3094 -50.3094 -50.3093 -50.3093
   -50.2303 -50.2303 -50.2302 -50.2302 -50.1948 -50.1948 -50.1948 -50.1948
   -50.1623 -50.1623 -50.1623 -50.1622 -50.1622 -50.1622 -50.1622 -50.1622
   -50.1051 -50.1051 -50.1051 -50.1051 -50.0512 -50.0512 -50.0512 -50.0512
   -50.0471 -50.0471 -50.0470 -50.0470 -49.9775 -49.9775 -49.9775 -49.9775
   -49.9775 -49.9775 -49.9775 -49.9775 -49.9282 -49.9282 -49.9281 -49.9281
    -4.3525  -4.3525  -4.3525  -4.3525  -3.0721  -3.0721  -3.0721  -3.0721
    -2.5682  -2.5682  -2.5682  -2.5682  -2.5682  -2.5681  -2.5681  -2.5681
    -1.9612  -1.9612  -1.9612  -1.9612  -1.9612  -1.9612  -1.9612  -1.9612
    -1.8710  -1.8710  -1.8710  -1.8710  -1.0059  -1.0059  -1.0059  -1.0058
    -0.8773  -0.8773  -0.8773  -0.8773  -0.1197  -0.1197  -0.1197  -0.1197
    -0.1196  -0.1196  -0.1196  -0.1196  -0.0707  -0.0707  -0.0707  -0.0707
    -0.0179  -0.0179  -0.0179  -0.0179   0.3870   0.3870   0.3870   0.3870
     0.8152   0.8152   0.8152   0.8152   0.8152   0.8152   0.8152   0.8152
     0.8983   0.8983   0.8983   0.8983   1.5462   1.5462   1.5462   1.5462
     1.5482   1.5482   1.5482   1.5483   1.5483   1.5483   1.5483   1.5483
     2.0929   2.0929   2.0930   2.0930   2.3334   2.3334   2.3334   2.3334
     5.1566   5.1566   5.1566   5.1566   5.1566   5.1566   5.1566   5.1566
     6.3981   6.3981   6.3982   6.3982   7.6942   7.6942   7.6942   7.6942
     7.6942   7.6942

     occupation numbers 
     1.0000   1.0000   1.0000   1.0000   1.0000   1.0000   1.0000   1.0000
     1.0000   1.0000   1.0000   1.0000   1.0000   1.0000   1.0000   1.0000
     1.0000   1.0000   1.0000   1.0000   1.0000   1.0000   1.0000   1.0000
     1.0000   1.0000   1.0000   1.0000   1.0000   1.0000   1.0000   1.0000
     1.0000   1.0000   1.0000   1.0000   1.0000   1.0000   1.0000   1.0000
     1.0000   1.0000   1.0000   1.0000   1.0000   1.0000   1.0000   1.0000
     1.0000   1.0000   1.0000   1.0000   1.0000   1.0000   1.0000   1.0000
     1.0000   1.0000   1.0000   1.0000   1.0000   1.0000   1.0000   1.0000
     1.0000   1.0000   1.0000   1.0000   1.0000   1.0000   1.0000   1.0000
     1.0000   1.0000   1.0000   1.0000   1.0000   1.0000   1.0000   1.0000
     1.0000   1.0000   1.0000   1.0000   1.0000   1.0000   1.0000   1.0000
     1.0000   1.0000   1.0000   1.0000   1.0000   1.0000   1.0000   1.0000
     1.0000   1.0000   1.0000   1.0000   1.0000   1.0000   1.0000   1.0000
     1.0000   1.0000   1.0000   1.0000   1.0000   1.0000   1.0000   1.0000
     1.0000   1.0000   1.0000   1.0000   1.0000   1.0000   1.0000   1.0000
     1.0000   1.0000   1.0000   1.0000   1.0000   1.0000   1.0000   1.0000
     0.0000   0.0000   0.0000   0.0000   0.0000   0.0000   0.0000   0.0000
     0.0000   0.0000   0.0000   0.0000   0.0000   0.0000   0.0000   0.0000
     0.0000   0.0000   0.0000   0.0000   0.0000   0.0000   0.0000   0.0000
     0.0000   0.0000

     the Fermi energy is     1.8858 ev

!    total energy              =   -3369.95018921 Ry
     estimated scf accuracy    <       0.00000030 Ry
     smearing contrib. (-TS)   =      -0.00237618 Ry
     internal energy E=F+TS    =   -3369.94781303 Ry

     The total energy is F=E-TS. E is the sum of the following terms:
     one-electron contribution =   -9112.18244692 Ry
     hartree contribution      =    4602.05060004 Ry
     xc contribution           =    -908.03166168 Ry
     ewald contribution        =    2048.21569554 Ry

     convergence has been achieved in  14 iterations

     negative rho (up, down):  2.802E+00 0.000E+00

     Forces acting on atoms (cartesian axes, Ry/au):

     atom    1 type  1   force =     0.00000000    0.00000000    0.02535552
     atom    2 type  1   force =     0.00000000    0.00001791   -0.02532104
     atom    3 type  1   force =    -0.00004209    0.00000000   -0.02536280
     atom    4 type  1   force =    -0.00001797   -0.00001797    0.02533665
     atom    5 type  1   force =     0.00000000    0.00000000    0.02534547
     atom    6 type  1   force =     0.00000000   -0.00001791   -0.02532104
     atom    7 type  1   force =     0.00001791    0.00000000   -0.02532104
     atom    8 type  1   force =    -0.00001797    0.00001797    0.02533665
     atom    9 type  1   force =     0.00000000    0.00000000    0.02534547
     atom   10 type  1   force =    -0.00000000   -0.00004209   -0.02536280
     atom   11 type  1   force =     0.00004209   -0.00000000   -0.02536280
     atom   12 type  1   force =     0.00001797   -0.00001797    0.02533665
     atom   13 type  1   force =     0.00000000    0.00000000    0.02534228
     atom   14 type  1   force =     0.00000000    0.00004209   -0.02536280
     atom   15 type  1   force =    -0.00001791    0.00000000   -0.02532104
     atom   16 type  1   force =     0.00001797    0.00001797    0.02533665
     The non-local contrib.  to forces
     atom    1 type  1   force =     0.00000000    0.00000000   -0.07397969
     atom    2 type  1   force =     0.00000000    0.00000220    0.07401451
     atom    3 type  1   force =    -0.00000879   -0.00000000    0.07400507
     atom    4 type  1   force =    -0.00000668   -0.00000668   -0.07398957
     atom    5 type  1   force =     0.00000000    0.00000000   -0.07397607
     atom    6 type  1   force =     0.00000000   -0.00000220    0.07401451
     atom    7 type  1   force =     0.00000220    0.00000000    0.07401451
     atom    8 type  1   force =    -0.00000668    0.00000668   -0.07398957
     atom    9 type  1   force =     0.00000000    0.00000000   -0.07397607
     atom   10 type  1   force =     0.00000000   -0.00000879    0.07400507
     atom   11 type  1   force =     0.00000879    0.00000000    0.07400507
     atom   12 type  1   force =     0.00000668   -0.00000668   -0.07398957
     atom   13 type  1   force =     0.00000000    0.00000000   -0.07398654
     atom   14 type  1   force =    -0.00000000    0.00000879    0.07400507
     atom   15 type  1   force =    -0.00000220    0.00000000    0.07401451
     atom   16 type  1   force =     0.00000668    0.00000668   -0.07398957
     The ionic contribution  to forces
     atom    1 type  1   force =     0.00000000    0.00000000  -77.02202201
     atom    2 type  1   force =     0.00000000   -0.00000000   77.02202201
     atom    3 type  1   force =    -0.00000000    0.00000000   77.02202201
     atom    4 type  1   force =    -0.00000000   -0.00000000  -77.02202201
     atom    5 type  1   force =     0.00000000    0.00000000  -77.02202201
     atom    6 type  1   force =    -0.00000000   -0.00000000   77.02202201
     atom    7 type  1   force =    -0.00000000    0.00000000   77.02202201
     atom    8 type  1   force =    -0.00000000    0.00000000  -77.02202201
     atom    9 type  1   force =     0.00000000    0.00000000  -77.02202201
     atom   10 type  1   force =     0.00000000   -0.00000000   77.02202201
     atom   11 type  1   force =     0.00000000    0.00000000   77.02202201
     atom   12 type  1   force =     0.00000000   -0.00000000  -77.02202201
     atom   13 type  1   force =     0.00000000    0.00000000  -77.02202201
     atom   14 type  1   force =    -0.00000000   -0.00000000   77.02202201
     atom   15 type  1   force =    -0.00000000   -0.00000000   77.02202201
     atom   16 type  1   force =     0.00000000    0.00000000  -77.02202201
     The local contribution  to forces
     atom    1 type  1   force =    -0.00000000   -0.00000000   77.09557511
     atom    2 type  1   force =     0.00000000   -0.00015982  -77.09552938
     atom    3 type  1   force =     0.00021413   -0.00000000  -77.09555526
     atom    4 type  1   force =    -0.00000911   -0.00000911   77.09558632
     atom    5 type  1   force =    -0.00000000    0.00000000   77.09572691
     atom    6 type  1   force =     0.00000000    0.00015982  -77.09552938
     atom    7 type  1   force =    -0.00015982    0.00000000  -77.09552938
     atom    8 type  1   force =    -0.00000911    0.00000911   77.09558632
     atom    9 type  1   force =     0.00000000   -0.00000000   77.09572691
     atom   10 type  1   force =     0.00000000    0.00021413  -77.09555526
     atom   11 type  1   force =    -0.00021413   -0.00000000  -77.09555526
     atom   12 type  1   force =     0.00000911   -0.00000911   77.09558632
     atom   13 type  1   force =     0.00000000    0.00000000   77.09560438
     atom   14 type  1   force =     0.00000000   -0.00021413  -77.09555526
     atom   15 type  1   force =     0.00015982    0.00000000  -77.09552938
     atom   16 type  1   force =     0.00000911    0.00000911   77.09558632
     The core correction contribution to forces
     atom    1 type  1   force =     0.00000000    0.00000000    0.02509342
     atom    2 type  1   force =     0.00000000   -0.00000192   -0.02508176
     atom    3 type  1   force =     0.00000052    0.00000000   -0.02508506
     atom    4 type  1   force =    -0.00000279   -0.00000279    0.02509050
     atom    5 type  1   force =     0.00000000    0.00000000    0.02509715
     atom    6 type  1   force =     0.00000000    0.00000192   -0.02508176
     atom    7 type  1   force =    -0.00000192   -0.00000000   -0.02508176
     atom    8 type  1   force =    -0.00000279    0.00000279    0.02509050
     atom    9 type  1   force =     0.00000000    0.00000000    0.02509715
     atom   10 type  1   force =    -0.00000000    0.00000052   -0.02508506
     atom   11 type  1   force =    -0.00000052    0.00000000   -0.02508506
     atom   12 type  1   force =     0.00000279   -0.00000279    0.02509050
     atom   13 type  1   force =    -0.00000000   -0.00000000    0.02509308
     atom   14 type  1   force =     0.00000000   -0.00000052   -0.02508506
     atom   15 type  1   force =     0.00000192    0.00000000   -0.02508176
     atom   16 type  1   force =     0.00000279    0.00000279    0.02509050
     The Hubbard contrib.    to forces
     atom    1 type  1   force =     0.00000000    0.00000000    0.00000000
     atom    2 type  1   force =     0.00000000    0.00000000    0.00000000
     atom    3 type  1   force =     0.00000000    0.00000000    0.00000000
     atom    4 type  1   force =     0.00000000    0.00000000    0.00000000
     atom    5 type  1   force =     0.00000000    0.00000000    0.00000000
     atom    6 type  1   force =     0.00000000    0.00000000    0.00000000
     atom    7 type  1   force =     0.00000000    0.00000000    0.00000000
     atom    8 type  1   force =     0.00000000    0.00000000    0.00000000
     atom    9 type  1   force =     0.00000000    0.00000000    0.00000000
     atom   10 type  1   force =     0.00000000    0.00000000    0.00000000
     atom   11 type  1   force =     0.00000000    0.00000000    0.00000000
     atom   12 type  1   force =     0.00000000    0.00000000    0.00000000
     atom   13 type  1   force =     0.00000000    0.00000000    0.00000000
     atom   14 type  1   force =     0.00000000    0.00000000    0.00000000
     atom   15 type  1   force =     0.00000000    0.00000000    0.00000000
     atom   16 type  1   force =     0.00000000    0.00000000    0.00000000
     The SCF correction term to forces
     atom    1 type  1   force =    -0.00000000   -0.00000000    0.00070525
     atom    2 type  1   force =    -0.00000000    0.00017744   -0.00072986
     atom    3 type  1   force =    -0.00024795    0.00000000   -0.00073301
     atom    4 type  1   force =     0.00000061    0.00000061    0.00068797
     atom    5 type  1   force =    -0.00000000   -0.00000000    0.00053604
     atom    6 type  1   force =    -0.00000000   -0.00017744   -0.00072986
     atom    7 type  1   force =     0.00017744    0.00000000   -0.00072986
     atom    8 type  1   force =     0.00000061   -0.00000061    0.00068797
     atom    9 type  1   force =    -0.00000000   -0.00000000    0.00053604
     atom   10 type  1   force =    -0.00000000   -0.00024795   -0.00073301
     atom   11 type  1   force =     0.00024795    0.00000000   -0.00073301
     atom   12 type  1   force =    -0.00000061    0.00000061    0.00068797
     atom   13 type  1   force =     0.00000000   -0.00000000    0.00066993
     atom   14 type  1   force =    -0.00000000    0.00024795   -0.00073301
     atom   15 type  1   force =    -0.00017744    0.00000000   -0.00072986
     atom   16 type  1   force =    -0.00000061   -0.00000061    0.00068797

     Total force =     0.101368     Total SCF correction =     0.002840


     Computing stress (Cartesian axis) and pressure


     negative rho (up, down):  2.802E+00 0.000E+00
          total   stress  (Ry/bohr**3)                   (kbar)     P=      -66.42
  -0.00056729   0.00000000   0.00000000          -83.45        0.00        0.00
   0.00000000  -0.00056729   0.00000000            0.00      -83.45        0.00
   0.00000000   0.00000000  -0.00022001            0.00        0.00      -32.36

     kinetic stress (kbar)  14894.78      0.00      0.00
                                0.00  14894.78      0.00
                                0.00      0.00  15150.66

     local   stress (kbar)-205993.05      0.00     -0.00
                                0.00-205993.05     -0.00
                               -0.00     -0.00 215712.37

     nonloc. stress (kbar)   -122.95      0.00      0.00
                                0.00   -122.95      0.00
                                0.00      0.00    -75.03

     hartree stress (kbar) 105683.17     -0.00     -0.00
                               -0.00 105683.17      0.00
                               -0.00      0.00 -97903.22

     exc-cor stress (kbar)  11033.84      0.00      0.00
                                0.00  11033.84      0.00
                                0.00      0.00  11025.85

     corecor stress (kbar) -15197.60     -0.00     -0.00
                               -0.00 -15197.60     -0.00
                               -0.00     -0.00 -15204.82

     ewald   stress (kbar)  89618.37      0.00      0.00
                                0.00  89618.37      0.00
                                0.00      0.00-128738.18

     hubbard stress (kbar)      0.00      0.00      0.00
                                0.00      0.00      0.00
                                0.00      0.00      0.00

     DFT-D   stress (kbar)      0.00      0.00      0.00
                                0.00      0.00      0.00
                                0.00      0.00      0.00

     XDM     stress (kbar)      0.00      0.00      0.00
                                0.00      0.00      0.00
                                0.00      0.00      0.00

     dft-nl  stress (kbar)      0.00      0.00      0.00
                                0.00      0.00      0.00
                                0.00      0.00      0.00

     TS-vdW  stress (kbar)      0.00      0.00      0.00
                                0.00      0.00      0.00
                                0.00      0.00      0.00



     BFGS Geometry Optimization
     Energy error            =      0.0E+00
     Gradient error          =      2.5E-02

     number of scf cycles    =   1
     number of bfgs steps    =   0

     energy   new            =   -3369.9501892054 Ry

     new trust radius        =       0.0253628350 bohr
     new conv_thr            =       0.0000010000 Ry


ATOMIC_POSITIONS (angstrom)
Pt            0.0000000000        0.0000000000        0.0134175633
Pt            3.9767700000        1.9883944779        1.9749856833
Pt            1.9883627266        0.0000000000        1.9749635842
Pt            1.9883754909        1.9883754909        0.0134075801
Pt            0.0000000000        3.9767700000        0.0134122437
Pt            3.9767700000        5.9651455221        1.9749856833
Pt            1.9883944779        3.9767700000        1.9749856833
Pt            1.9883754909        5.9651645091        0.0134075801
Pt            3.9767700000        0.0000000000        0.0134122437
Pt            7.9535400000        1.9883627266        1.9749635842
Pt            5.9651772734       -0.0000000000        1.9749635842
Pt            5.9651645091        1.9883754909        0.0134075801
Pt            3.9767700000        3.9767700000        0.0134105588
Pt            7.9535400000        5.9651772734        1.9749635842
Pt            5.9651455221        3.9767700000        1.9749856833
Pt            5.9651645091        5.9651645091        0.0134075801



     Writing output data file ./surface.save/
     NEW-OLD atomic charge density approx. for the potential

     negative rho (up, down):  2.811E+00 0.000E+00

     total cpu time spent up to now is       66.9 secs

     Self-consistent Calculation

     iteration #  1     ecut=    30.00 Ry     beta= 0.30
     Davidson diagonalization with overlap
     ethr =  1.00E-06,  avg # of iterations =  6.1

     negative rho (up, down):  2.811E+00 0.000E+00

     total cpu time spent up to now is       76.6 secs

     total energy              =   -3369.95943721 Ry
     estimated scf accuracy    <       0.00067109 Ry

     iteration #  2     ecut=    30.00 Ry     beta= 0.30
     Davidson diagonalization with overlap
     ethr =  2.62E-07,  avg # of iterations =  1.8

     negative rho (up, down):  2.811E+00 0.000E+00

     total cpu time spent up to now is       80.0 secs

     total energy              =   -3369.95941495 Ry
     estimated scf accuracy    <       0.00026790 Ry

     iteration #  3     ecut=    30.00 Ry     beta= 0.30
     Davidson diagonalization with overlap
     ethr =  1.05E-07,  avg # of iterations =  1.8

     negative rho (up, down):  2.811E+00 0.000E+00

     total cpu time spent up to now is       83.6 secs

     total energy              =   -3369.95937179 Ry
     estimated scf accuracy    <       0.00063497 Ry

     iteration #  4     ecut=    30.00 Ry     beta= 0.30
     Davidson diagonalization with overlap
     ethr =  1.05E-07,  avg # of iterations =  1.0

     negative rho (up, down):  2.811E+00 0.000E+00

     total cpu time spent up to now is       86.8 secs

     total energy              =   -3369.95941164 Ry
     estimated scf accuracy    <       0.00020299 Ry

     iteration #  5     ecut=    30.00 Ry     beta= 0.30
     Davidson diagonalization with overlap
     ethr =  7.93E-08,  avg # of iterations =  1.0

     negative rho (up, down):  2.811E+00 0.000E+00

     total cpu time spent up to now is       89.9 secs

     total energy              =   -3369.95941710 Ry
     estimated scf accuracy    <       0.00027190 Ry

     iteration #  6     ecut=    30.00 Ry     beta= 0.30
     Davidson diagonalization with overlap
     ethr =  7.93E-08,  avg # of iterations =  1.0

     negative rho (up, down):  2.811E+00 0.000E+00

     total cpu time spent up to now is       93.1 secs

     total energy              =   -3369.95943113 Ry
     estimated scf accuracy    <       0.00001000 Ry

     iteration #  7     ecut=    30.00 Ry     beta= 0.30
     Davidson diagonalization with overlap
     ethr =  3.91E-09,  avg # of iterations =  1.9

     negative rho (up, down):  2.811E+00 0.000E+00

     total cpu time spent up to now is       96.8 secs

     total energy              =   -3369.95943152 Ry
     estimated scf accuracy    <       0.00001274 Ry

     iteration #  8     ecut=    30.00 Ry     beta= 0.30
     Davidson diagonalization with overlap
     ethr =  3.91E-09,  avg # of iterations =  1.0

     negative rho (up, down):  2.811E+00 0.000E+00

     total cpu time spent up to now is      100.1 secs

     total energy              =   -3369.95943222 Ry
     estimated scf accuracy    <       0.00000954 Ry

     iteration #  9     ecut=    30.00 Ry     beta= 0.30
     Davidson diagonalization with overlap
     ethr =  3.73E-09,  avg # of iterations =  1.0

     negative rho (up, down):  2.811E+00 0.000E+00

     total cpu time spent up to now is      103.3 secs

     End of self-consistent calculation

          k = 0.0000 0.0000 0.0000 ( 16575 PWs)   bands (ev):

   -50.3565 -50.3565 -50.3388 -50.3388 -50.3388 -50.3388 -50.2517 -50.2517
   -50.2516 -50.2516 -50.2373 -50.2373 -50.2373 -50.2373 -50.2315 -50.2315
   -50.2066 -50.2066 -50.2066 -50.2066 -50.1473 -50.1473 -50.1473 -50.1473
   -50.1457 -50.1457 -50.1426 -50.0872 -50.0872 -50.0872 -50.0872 -50.0621
   -50.0621 -50.0478 -50.0478 -50.0478 -50.0477 -50.0020 -50.0019 -49.9967
   -49.9967 -49.9967 -49.9967 -49.9541 -49.9540 -49.9540 -49.9539 -49.9378
    -5.6254  -3.5682  -3.3410  -3.3410  -3.3410  -3.3410  -3.3041  -3.3040
    -3.3040  -3.3039  -3.1914  -3.0560  -3.0560  -2.5635  -2.5635  -2.0818
    -2.0817  -2.0817  -2.0816  -1.8409  -1.8408  -1.8408  -1.8407  -1.7653
    -1.2216  -1.2216  -1.2216  -1.2216  -1.1870  -1.1870  -1.1870  -1.1870
    -0.6611  -0.6610  -0.6610  -0.6610  -0.5139  -0.5138  -0.5138  -0.5137
    -0.3637  -0.3637  -0.3637  -0.3637  -0.2954  -0.2953  -0.2953  -0.2952
    -0.1567  -0.1567   0.2330   0.4365   0.4365   0.4365   0.4366   0.5016
     0.5016   0.5016   0.5016   0.6819   0.6819   0.6819   0.6819   0.7721
     0.7721   0.9209   1.2695   1.3974   1.3974   1.3974   1.3974   1.4422
     1.4422   1.7063   1.7063   1.7064   1.7064   1.7337   1.7337   1.7337
     1.7337   1.9476   1.9476   2.0975   2.8579   2.8579   3.7853   3.7853
     3.7853   3.7853   3.9587   3.9588   3.9588   3.9588   4.0470   6.2178
     6.2178   6.2178   6.2178   6.4698   6.4698   7.4850   7.8360   8.0273
     8.0273   8.0273

     occupation numbers 
     1.0000   1.0000   1.0000   1.0000   1.0000   1.0000   1.0000   1.0000
     1.0000   1.0000   1.0000   1.0000   1.0000   1.0000   1.0000   1.0000
     1.0000   1.0000   1.0000   1.0000   1.0000   1.0000   1.0000   1.0000
     1.0000   1.0000   1.0000   1.0000   1.0000   1.0000   1.0000   1.0000
     1.0000   1.0000   1.0000   1.0000   1.0000   1.0000   1.0000   1.0000
     1.0000   1.0000   1.0000   1.0000   1.0000   1.0000   1.0000   1.0000
     1.0000   1.0000   1.0000   1.0000   1.0000   1.0000   1.0000   1.0000
     1.0000   1.0000   1.0000   1.0000   1.0000   1.0000   1.0000   1.0000
     1.0000   1.0000   1.0000   1.0000   1.0000   1.0000   1.0000   1.0000
     1.0000   1.0000   1.0000   1.0000   1.0000   1.0000   1.0000   1.0000
     1.0000   1.0000   1.0000   1.0000   1.0000   1.0000   1.0000   1.0000
     1.0000   1.0000   1.0000   1.0000   1.0000   1.0000   1.0000   1.0000
     1.0000   1.0000   1.0000   1.0000   1.0000   1.0000   1.0000   1.0000
     1.0000   1.0000   1.0000   1.0000   1.0000   1.0000   1.0000   1.0000
     1.0000   1.0000   1.0000   1.0000   1.0000   1.0000   1.0000   1.0000
     1.0000   1.0000   1.0000   1.0000   1.0000   1.0000   1.0000   1.0000
     1.0000   0.0490   0.0490   0.0000   0.0000   0.0000   0.0000   0.0000
     0.0000   0.0000   0.0000   0.0000   0.0000   0.0000   0.0000   0.0000
     0.0000   0.0000   0.0000   0.0000   0.0000   0.0000   0.0000   0.0000
     0.0000   0.0000

          k = 0.0000 0.1667 0.0000 ( 16540 PWs)   bands (ev):

   -50.3530 -50.3526 -50.3386 -50.3386 -50.3309 -50.3309 -50.2789 -50.2681
   -50.2677 -50.2676 -50.2479 -50.2479 -50.2313 -50.2287 -50.2244 -50.2164
   -50.2070 -50.1946 -50.1897 -50.1897 -50.1691 -50.1493 -50.1485 -50.1438
   -50.1381 -50.1381 -50.1253 -50.0963 -50.0963 -50.0853 -50.0853 -50.0650
   -50.0637 -50.0580 -50.0460 -50.0460 -50.0365 -50.0090 -50.0089 -50.0036
   -49.9999 -49.9852 -49.9851 -49.9634 -49.9554 -49.9554 -49.9465 -49.9377
    -5.5414  -3.8217  -3.4925  -3.3884  -3.3884  -3.3086  -3.3086  -3.2291
    -3.2291  -3.1443  -3.0159  -2.9989  -2.9527  -2.5424  -2.5384  -2.2363
    -2.2241  -2.2241  -2.1015  -2.0396  -1.9808  -1.7940  -1.7940  -1.7197
    -1.6316  -1.3332  -1.3332  -1.1715  -1.1715  -1.0827  -1.0827  -0.8225
    -0.7050  -0.7049  -0.6490  -0.6427  -0.6427  -0.4600  -0.4600  -0.4551
    -0.4550  -0.4050  -0.4050  -0.3645  -0.3644  -0.2792  -0.2519  -0.1919
    -0.1072   0.1171   0.2378   0.2762   0.5198   0.5198   0.5403   0.5403
     0.5713   0.5713   0.6681   0.7108   0.7474   0.7474   0.7670   0.8185
     0.8746   1.0704   1.1641   1.3235   1.3538   1.3539   1.4152   1.4322
     1.5865   1.5865   1.5948   1.7220   1.7436   1.7529   1.7529   1.7860
     1.7860   1.8054   1.9368   2.0484   2.5757   2.7484   3.1095   3.1095
     3.2548   3.9886   3.9886   4.3001   4.4332   4.4332   4.7583   5.8003
     5.8175   5.8176   6.8096   6.9526   6.9526   7.1763   7.5608   7.8960
     8.0675   8.0675

     occupation numbers 
     1.0000   1.0000   1.0000   1.0000   1.0000   1.0000   1.0000   1.0000
     1.0000   1.0000   1.0000   1.0000   1.0000   1.0000   1.0000   1.0000
     1.0000   1.0000   1.0000   1.0000   1.0000   1.0000   1.0000   1.0000
     1.0000   1.0000   1.0000   1.0000   1.0000   1.0000   1.0000   1.0000
     1.0000   1.0000   1.0000   1.0000   1.0000   1.0000   1.0000   1.0000
     1.0000   1.0000   1.0000   1.0000   1.0000   1.0000   1.0000   1.0000
     1.0000   1.0000   1.0000   1.0000   1.0000   1.0000   1.0000   1.0000
     1.0000   1.0000   1.0000   1.0000   1.0000   1.0000   1.0000   1.0000
     1.0000   1.0000   1.0000   1.0000   1.0000   1.0000   1.0000   1.0000
     1.0000   1.0000   1.0000   1.0000   1.0000   1.0000   1.0000   1.0000
     1.0000   1.0000   1.0000   1.0000   1.0000   1.0000   1.0000   1.0000
     1.0000   1.0000   1.0000   1.0000   1.0000   1.0000   1.0000   1.0000
     1.0000   1.0000   1.0000   1.0000   1.0000   1.0000   1.0000   1.0000
     1.0000   1.0000   1.0000   1.0000   1.0000   1.0000   1.0000   1.0000
     1.0000   1.0000   1.0000   1.0000   1.0000   1.0000   1.0000   1.0000
     1.0000   1.0000   1.0000   1.0000   1.0000   1.0000   1.0000   1.0000
     1.0000   0.9995   0.1000   0.0000   0.0000   0.0000   0.0000   0.0000
     0.0000   0.0000   0.0000   0.0000   0.0000   0.0000   0.0000   0.0000
     0.0000   0.0000   0.0000   0.0000   0.0000   0.0000   0.0000   0.0000
     0.0000   0.0000

          k = 0.0000 0.3333 0.0000 ( 16528 PWs)   bands (ev):

   -50.3425 -50.3406 -50.3304 -50.3304 -50.3157 -50.3157 -50.3042 -50.2970
   -50.2926 -50.2926 -50.2705 -50.2705 -50.2303 -50.2236 -50.2203 -50.1989
   -50.1893 -50.1813 -50.1802 -50.1616 -50.1616 -50.1600 -50.1564 -50.1487
   -50.1198 -50.1198 -50.1125 -50.1125 -50.1048 -50.0906 -50.0906 -50.0736
   -50.0673 -50.0656 -50.0408 -50.0408 -50.0254 -50.0212 -50.0212 -50.0083
   -49.9936 -49.9748 -49.9748 -49.9740 -49.9596 -49.9595 -49.9414 -49.9377
    -5.2942  -4.3879  -3.3861  -3.3861  -3.3260  -3.3260  -3.2702  -3.0475
    -3.0475  -3.0058  -2.9140  -2.8335  -2.8064  -2.5090  -2.5087  -2.5087
    -2.4755  -2.4675  -2.4648  -2.2714  -2.2174  -2.0148  -1.6895  -1.6895
    -1.5867  -1.4372  -1.4372  -1.1000  -1.1000  -1.0697  -0.9199  -0.9199
    -0.7646  -0.6827  -0.6827  -0.6810  -0.6810  -0.6079  -0.6079  -0.5800
    -0.5211  -0.5211  -0.4413  -0.2919  -0.2020  -0.0761  -0.0761   0.0783
     0.2452   0.2638   0.4580   0.4755   0.4755   0.4938   0.5548   0.7149
     0.7149   0.7416   0.7452   0.7452   0.8301   0.8486   0.9095   0.9096
     1.1670   1.1799   1.3097   1.3097   1.3131   1.3306   1.3565   1.3565
     1.3809   1.3999   1.5810   1.6314   1.6314   1.8000   1.8485   1.9052
     1.9375   1.9430   1.9654   1.9654   2.1766   2.4657   2.5810   2.5810
     2.6310   4.0858   4.0858   4.4980   4.4980   4.5270   4.8830   5.6816
     6.3488   6.3488   6.3681   7.6208   7.7010   7.7010   7.7878   8.0753
     8.1525   8.1526

     occupation numbers 
     1.0000   1.0000   1.0000   1.0000   1.0000   1.0000   1.0000   1.0000
     1.0000   1.0000   1.0000   1.0000   1.0000   1.0000   1.0000   1.0000
     1.0000   1.0000   1.0000   1.0000   1.0000   1.0000   1.0000   1.0000
     1.0000   1.0000   1.0000   1.0000   1.0000   1.0000   1.0000   1.0000
     1.0000   1.0000   1.0000   1.0000   1.0000   1.0000   1.0000   1.0000
     1.0000   1.0000   1.0000   1.0000   1.0000   1.0000   1.0000   1.0000
     1.0000   1.0000   1.0000   1.0000   1.0000   1.0000   1.0000   1.0000
     1.0000   1.0000   1.0000   1.0000   1.0000   1.0000   1.0000   1.0000
     1.0000   1.0000   1.0000   1.0000   1.0000   1.0000   1.0000   1.0000
     1.0000   1.0000   1.0000   1.0000   1.0000   1.0000   1.0000   1.0000
     1.0000   1.0000   1.0000   1.0000   1.0000   1.0000   1.0000   1.0000
     1.0000   1.0000   1.0000   1.0000   1.0000   1.0000   1.0000   1.0000
     1.0000   1.0000   1.0000   1.0000   1.0000   1.0000   1.0000   1.0000
     1.0000   1.0000   1.0000   1.0000   1.0000   1.0000   1.0000   1.0000
     1.0000   1.0000   1.0000   1.0000   1.0000   1.0000   1.0000   1.0000
     1.0000   1.0000   1.0000   1.0000   1.0000   0.9997   0.9623   0.4265
     0.0963   0.0673   0.0116   0.0115   0.0000   0.0000   0.0000   0.0000
     0.0000   0.0000   0.0000   0.0000   0.0000   0.0000   0.0000   0.0000
     0.0000   0.0000   0.0000   0.0000   0.0000   0.0000   0.0000   0.0000
     0.0000   0.0000

          k = 0.0000-0.5000 0.0000 ( 16478 PWs)   bands (ev):

   -50.3259 -50.3259 -50.3218 -50.3218 -50.3145 -50.3145 -50.3145 -50.3145
   -50.2947 -50.2947 -50.2947 -50.2947 -50.2279 -50.2279 -50.2069 -50.2069
   -50.1769 -50.1769 -50.1679 -50.1679 -50.1602 -50.1602 -50.1349 -50.1349
   -50.1348 -50.1348 -50.1026 -50.1026 -50.1025 -50.1025 -50.0871 -50.0871
   -50.0687 -50.0687 -50.0323 -50.0322 -50.0322 -50.0322 -50.0158 -50.0158
   -49.9846 -49.9846 -49.9661 -49.9661 -49.9661 -49.9660 -49.9387 -49.9386
    -4.8991  -4.8990  -3.3569  -3.3569  -3.3568  -3.3568  -2.9182  -2.9182
    -2.8156  -2.8155  -2.8008  -2.8008  -2.8008  -2.8008  -2.7856  -2.7855
    -2.5786  -2.5786  -2.3520  -2.3519  -2.3016  -2.3016  -1.5585  -1.5585
    -1.5585  -1.5585  -1.3672  -1.3672  -0.9446  -0.9446  -0.9445  -0.9445
    -0.7037  -0.7037  -0.7037  -0.7037  -0.6898  -0.6898  -0.6898  -0.6898
    -0.6237  -0.6237  -0.4346  -0.4346   0.2097   0.2097   0.2653   0.2653
     0.2653   0.2654   0.3424   0.3424   0.3837   0.3837   0.6590   0.6590
     0.8199   0.8199   0.8199   0.8199   1.1099   1.1099   1.1183   1.1183
     1.1183   1.1183   1.2015   1.2015   1.3317   1.3317   1.4200   1.4200
     1.4202   1.4202   1.4202   1.4202   1.4345   1.4345   1.8579   1.8579
     2.1150   2.1151   2.1201   2.1201   2.2163   2.2164   2.2164   2.2164
     3.2387   3.2387   4.2655   4.2655   4.2655   4.2655   5.5974   5.5974
     6.7515   6.7516   7.5089   7.5089   7.5089   7.5089   8.1265   8.1265
     8.1643   8.1643

     occupation numbers 
     1.0000   1.0000   1.0000   1.0000   1.0000   1.0000   1.0000   1.0000
     1.0000   1.0000   1.0000   1.0000   1.0000   1.0000   1.0000   1.0000
     1.0000   1.0000   1.0000   1.0000   1.0000   1.0000   1.0000   1.0000
     1.0000   1.0000   1.0000   1.0000   1.0000   1.0000   1.0000   1.0000
     1.0000   1.0000   1.0000   1.0000   1.0000   1.0000   1.0000   1.0000
     1.0000   1.0000   1.0000   1.0000   1.0000   1.0000   1.0000   1.0000
     1.0000   1.0000   1.0000   1.0000   1.0000   1.0000   1.0000   1.0000
     1.0000   1.0000   1.0000   1.0000   1.0000   1.0000   1.0000   1.0000
     1.0000   1.0000   1.0000   1.0000   1.0000   1.0000   1.0000   1.0000
     1.0000   1.0000   1.0000   1.0000   1.0000   1.0000   1.0000   1.0000
     1.0000   1.0000   1.0000   1.0000   1.0000   1.0000   1.0000   1.0000
     1.0000   1.0000   1.0000   1.0000   1.0000   1.0000   1.0000   1.0000
     1.0000   1.0000   1.0000   1.0000   1.0000   1.0000   1.0000   1.0000
     1.0000   1.0000   1.0000   1.0000   1.0000   1.0000   1.0000   1.0000
     1.0000   1.0000   1.0000   1.0000   1.0000   1.0000   1.0000   1.0000
     1.0000   1.0000   1.0000   1.0000   1.0000   1.0000   0.9267   0.9267
     0.0000   0.0000   0.0000   0.0000   0.0000   0.0000   0.0000   0.0000
     0.0000   0.0000   0.0000   0.0000   0.0000   0.0000   0.0000   0.0000
     0.0000   0.0000   0.0000   0.0000   0.0000   0.0000   0.0000   0.0000
     0.0000   0.0000

          k = 0.1667 0.1667 0.0000 ( 16569 PWs)   bands (ev):

   -50.3497 -50.3497 -50.3370 -50.3370 -50.3324 -50.3171 -50.2901 -50.2900
   -50.2763 -50.2763 -50.2443 -50.2443 -50.2280 -50.2280 -50.2187 -50.2187
   -50.2029 -50.2028 -50.1754 -50.1753 -50.1611 -50.1611 -50.1608 -50.1458
   -50.1431 -50.1162 -50.1161 -50.1002 -50.1002 -50.0991 -50.0775 -50.0699
   -50.0624 -50.0567 -50.0566 -50.0346 -50.0345 -50.0217 -50.0014 -50.0014
   -49.9968 -49.9968 -49.9746 -49.9650 -49.9649 -49.9478 -49.9478 -49.9378
    -5.4603  -3.8088  -3.8088  -3.5355  -3.4380  -3.2037  -3.1945  -3.1945
    -3.0794  -2.9597  -2.9597  -2.9567  -2.9566  -2.5189  -2.5189  -2.4379
    -2.4378  -2.1952  -2.1951  -1.9283  -1.9283  -1.8861  -1.8860  -1.6753
    -1.6069  -1.6069  -1.4525  -1.1846  -1.1846  -0.9724  -0.7752  -0.7751
    -0.7501  -0.7500  -0.6969  -0.6969  -0.6101  -0.6100  -0.6091  -0.6090
    -0.4114  -0.4113  -0.3957  -0.3352  -0.2643  -0.1451  -0.0433  -0.0433
     0.0345   0.0346   0.2408   0.2742   0.3085   0.3086   0.3553   0.7093
     0.7093   0.7629   0.7629   0.7692   0.7692   0.9089   0.9089   0.9247
     0.9248   1.0946   1.1901   1.2592   1.2592   1.3915   1.3915   1.5115
     1.5115   1.5195   1.5195   1.5737   1.5816   1.8131   1.8131   1.9056
     1.9331   1.9332   2.0007   2.0190   2.3348   2.4739   2.4739   3.2690
     3.2691   4.0755   4.0755   4.1400   4.5099   4.8137   4.8137   6.1314
     6.1314   6.2178   6.3880   6.3880   7.2310   7.2311   7.4514   7.6362
     7.9559   8.9555

     occupation numbers 
     1.0000   1.0000   1.0000   1.0000   1.0000   1.0000   1.0000   1.0000
     1.0000   1.0000   1.0000   1.0000   1.0000   1.0000   1.0000   1.0000
     1.0000   1.0000   1.0000   1.0000   1.0000   1.0000   1.0000   1.0000
     1.0000   1.0000   1.0000   1.0000   1.0000   1.0000   1.0000   1.0000
     1.0000   1.0000   1.0000   1.0000   1.0000   1.0000   1.0000   1.0000
     1.0000   1.0000   1.0000   1.0000   1.0000   1.0000   1.0000   1.0000
     1.0000   1.0000   1.0000   1.0000   1.0000   1.0000   1.0000   1.0000
     1.0000   1.0000   1.0000   1.0000   1.0000   1.0000   1.0000   1.0000
[...]
    -4.6212  -4.6212  -4.6212  -4.6212  -3.3655  -3.3655  -3.3654  -3.3654
    -2.8569  -2.8569  -2.8569  -2.8569  -2.8569  -2.8569  -2.8569  -2.8569
    -2.2876  -2.2876  -2.2875  -2.2875  -2.2875  -2.2875  -2.2875  -2.2875
    -2.1237  -2.1237  -2.1237  -2.1237  -1.0444  -1.0444  -1.0444  -1.0444
    -0.9811  -0.9811  -0.9810  -0.9810  -0.4217  -0.4217  -0.4217  -0.4217
    -0.2263  -0.2263  -0.2263  -0.2263  -0.2263  -0.2263  -0.2262  -0.2262
     0.0676   0.0676   0.0676   0.0676   0.1043   0.1043   0.1043   0.1043
     0.8984   0.8985   0.8985   0.8985   0.8985   0.8985   0.8985   0.8985
     0.9044   0.9044   0.9044   0.9044   1.5224   1.5224   1.5224   1.5224
     1.5224   1.5224   1.5224   1.5225   1.6122   1.6122   1.6122   1.6122
     2.1806   2.1806   2.1806   2.1806   2.3992   2.3992   2.3993   2.3993
     5.1131   5.1131   5.1131   5.1132   5.1132   5.1132   5.1132   5.1132
     6.5275   6.5275   6.5276   6.5276   7.8621   7.8621   7.8621   7.8621
     7.8621   7.8621

     occupation numbers 
     1.0000   1.0000   1.0000   1.0000   1.0000   1.0000   1.0000   1.0000
     1.0000   1.0000   1.0000   1.0000   1.0000   1.0000   1.0000   1.0000
     1.0000   1.0000   1.0000   1.0000   1.0000   1.0000   1.0000   1.0000
     1.0000   1.0000   1.0000   1.0000   1.0000   1.0000   1.0000   1.0000
     1.0000   1.0000   1.0000   1.0000   1.0000   1.0000   1.0000   1.0000
     1.0000   1.0000   1.0000   1.0000   1.0000   1.0000   1.0000   1.0000
     1.0000   1.0000   1.0000   1.0000   1.0000   1.0000   1.0000   1.0000
     1.0000   1.0000   1.0000   1.0000   1.0000   1.0000   1.0000   1.0000
     1.0000   1.0000   1.0000   1.0000   1.0000   1.0000   1.0000   1.0000
     1.0000   1.0000   1.0000   1.0000   1.0000   1.0000   1.0000   1.0000
     1.0000   1.0000   1.0000   1.0000   1.0000   1.0000   1.0000   1.0000
     1.0000   1.0000   1.0000   1.0000   1.0000   1.0000   1.0000   1.0000
     1.0000   1.0000   1.0000   1.0000   1.0000   1.0000   1.0000   1.0000
     1.0000   1.0000   1.0000   1.0000   1.0000   1.0000   1.0000   1.0000
     1.0000   1.0000   1.0000   1.0000   1.0000   1.0000   1.0000   1.0000
     1.0000   1.0000   1.0000   1.0000   1.0000   1.0000   1.0000   1.0000
     0.0000   0.0000   0.0000   0.0000   0.0000   0.0000   0.0000   0.0000
     0.0000   0.0000   0.0000   0.0000   0.0000   0.0000   0.0000   0.0000
     0.0000   0.0000   0.0000   0.0000   0.0000   0.0000   0.0000   0.0000
     0.0000   0.0000

     the Fermi energy is     1.9381 ev

!    total energy              =   -3369.97470012 Ry
     estimated scf accuracy    <          5.3E-09 Ry
     smearing contrib. (-TS)   =      -0.00183837 Ry
     internal energy E=F+TS    =   -3369.97286175 Ry

     The total energy is F=E-TS. E is the sum of the following terms:
     one-electron contribution =   -9382.89906093 Ry
     hartree contribution      =    4736.54863100 Ry
     xc contribution           =    -908.48529891 Ry
     ewald contribution        =    2184.86286709 Ry

     convergence has been achieved in  10 iterations

     negative rho (up, down):  2.829E+00 0.000E+00

     Forces acting on atoms (cartesian axes, Ry/au):

     atom    1 type  1   force =     0.00000000    0.00000000    0.00005847
     atom    2 type  1   force =     0.00000000    0.00000500   -0.00004926
     atom    3 type  1   force =    -0.00000895    0.00000000   -0.00004671
     atom    4 type  1   force =     0.00000248    0.00000248    0.00004638
     atom    5 type  1   force =     0.00000000    0.00000000    0.00004393
     atom    6 type  1   force =     0.00000000   -0.00000500   -0.00004926
     atom    7 type  1   force =     0.00000500    0.00000000   -0.00004926
     atom    8 type  1   force =     0.00000248   -0.00000248    0.00004638
     atom    9 type  1   force =     0.00000000    0.00000000    0.00004393
     atom   10 type  1   force =     0.00000000   -0.00000895   -0.00004671
     atom   11 type  1   force =     0.00000895    0.00000000   -0.00004671
     atom   12 type  1   force =    -0.00000248    0.00000248    0.00004638
     atom   13 type  1   force =     0.00000000    0.00000000    0.00005201
     atom   14 type  1   force =     0.00000000    0.00000895   -0.00004671
     atom   15 type  1   force =    -0.00000500    0.00000000   -0.00004926
     atom   16 type  1   force =    -0.00000248   -0.00000248    0.00004638
     The non-local contrib.  to forces
     atom    1 type  1   force =     0.00000000    0.00000000   -0.08693548
     atom    2 type  1   force =    -0.00000000    0.00000430    0.08694338
     atom    3 type  1   force =    -0.00001071   -0.00000000    0.08694772
     atom    4 type  1   force =     0.00000311    0.00000311   -0.08694075
     atom    5 type  1   force =     0.00000000    0.00000000   -0.08694025
     atom    6 type  1   force =     0.00000000   -0.00000430    0.08694338
     atom    7 type  1   force =     0.00000430   -0.00000000    0.08694338
     atom    8 type  1   force =     0.00000311   -0.00000311   -0.08694075
     atom    9 type  1   force =     0.00000000    0.00000000   -0.08694025
     atom   10 type  1   force =    -0.00000000   -0.00001071    0.08694772
     atom   11 type  1   force =     0.00001071    0.00000000    0.08694772
     atom   12 type  1   force =    -0.00000311    0.00000311   -0.08694075
     atom   13 type  1   force =     0.00000000    0.00000000   -0.08694377
     atom   14 type  1   force =     0.00000000    0.00001071    0.08694772
     atom   15 type  1   force =    -0.00000430    0.00000000    0.08694338
     atom   16 type  1   force =    -0.00000311   -0.00000311   -0.08694075
     The ionic contribution  to forces
     atom    1 type  1   force =    -0.00000000   -0.00000000  -77.71722024
     atom    2 type  1   force =    -0.00000000    0.00046341   77.71749382
     atom    3 type  1   force =    -0.00104284   -0.00000000   77.71739143
     atom    4 type  1   force =     0.00015915    0.00015915  -77.71736161
     atom    5 type  1   force =     0.00000000   -0.00000000  -77.71790264
     atom    6 type  1   force =     0.00000000   -0.00046341   77.71749382
     atom    7 type  1   force =     0.00046341   -0.00000000   77.71749382
     atom    8 type  1   force =     0.00015915   -0.00015915  -77.71736161
     atom    9 type  1   force =    -0.00000000   -0.00000000  -77.71790264
     atom   10 type  1   force =    -0.00000000   -0.00104284   77.71739143
     atom   11 type  1   force =     0.00104284   -0.00000000   77.71739143
     atom   12 type  1   force =    -0.00015915    0.00015915  -77.71736161
     atom   13 type  1   force =     0.00000000    0.00000000  -77.71706908
     atom   14 type  1   force =    -0.00000000    0.00104284   77.71739143
     atom   15 type  1   force =    -0.00046341    0.00000000   77.71749382
     atom   16 type  1   force =    -0.00015915   -0.00015915  -77.71736161
     The local contribution  to forces
     atom    1 type  1   force =    -0.00000000   -0.00000000   77.77565933
     atom    2 type  1   force =     0.00000000   -0.00050542  -77.77588347
     atom    3 type  1   force =     0.00109522   -0.00000000  -77.77579881
     atom    4 type  1   force =    -0.00016785   -0.00016785   77.77579467
     atom    5 type  1   force =    -0.00000000    0.00000000   77.77632730
     atom    6 type  1   force =    -0.00000000    0.00050542  -77.77588347
     atom    7 type  1   force =    -0.00050542    0.00000000  -77.77588347
     atom    8 type  1   force =    -0.00016785    0.00016785   77.77579467
     atom    9 type  1   force =     0.00000000    0.00000000   77.77632730
     atom   10 type  1   force =     0.00000000    0.00109522  -77.77579881
     atom   11 type  1   force =    -0.00109522   -0.00000000  -77.77579881
     atom   12 type  1   force =     0.00016785   -0.00016785   77.77579467
     atom   13 type  1   force =     0.00000000    0.00000000   77.77553830
     atom   14 type  1   force =     0.00000000   -0.00109522  -77.77579881
     atom   15 type  1   force =     0.00050542   -0.00000000  -77.77588347
     atom   16 type  1   force =     0.00016785    0.00016785   77.77579467
     The core correction contribution to forces
     atom    1 type  1   force =     0.00000000    0.00000000    0.02855748
     atom    2 type  1   force =     0.00000000   -0.00000036   -0.02855464
     atom    3 type  1   force =     0.00000039    0.00000000   -0.02855449
     atom    4 type  1   force =     0.00000014    0.00000014    0.02855807
     atom    5 type  1   force =     0.00000000    0.00000000    0.02855933
     atom    6 type  1   force =    -0.00000000    0.00000036   -0.02855464
     atom    7 type  1   force =    -0.00000036    0.00000000   -0.02855464
     atom    8 type  1   force =     0.00000014   -0.00000014    0.02855807
     atom    9 type  1   force =     0.00000000    0.00000000    0.02855933
     atom   10 type  1   force =     0.00000000    0.00000039   -0.02855449
     atom   11 type  1   force =    -0.00000039    0.00000000   -0.02855449
     atom   12 type  1   force =    -0.00000014    0.00000014    0.02855807
     atom   13 type  1   force =     0.00000000    0.00000000    0.02855741
     atom   14 type  1   force =     0.00000000   -0.00000039   -0.02855449
     atom   15 type  1   force =     0.00000036   -0.00000000   -0.02855464
     atom   16 type  1   force =    -0.00000014   -0.00000014    0.02855807
     The Hubbard contrib.    to forces
     atom    1 type  1   force =     0.00000000    0.00000000    0.00000000
     atom    2 type  1   force =     0.00000000    0.00000000    0.00000000
     atom    3 type  1   force =     0.00000000    0.00000000    0.00000000
     atom    4 type  1   force =     0.00000000    0.00000000    0.00000000
     atom    5 type  1   force =     0.00000000    0.00000000    0.00000000
     atom    6 type  1   force =     0.00000000    0.00000000    0.00000000
     atom    7 type  1   force =     0.00000000    0.00000000    0.00000000
     atom    8 type  1   force =     0.00000000    0.00000000    0.00000000
     atom    9 type  1   force =     0.00000000    0.00000000    0.00000000
     atom   10 type  1   force =     0.00000000    0.00000000    0.00000000
     atom   11 type  1   force =     0.00000000    0.00000000    0.00000000
     atom   12 type  1   force =     0.00000000    0.00000000    0.00000000
     atom   13 type  1   force =     0.00000000    0.00000000    0.00000000
     atom   14 type  1   force =     0.00000000    0.00000000    0.00000000
     atom   15 type  1   force =     0.00000000    0.00000000    0.00000000
     atom   16 type  1   force =     0.00000000    0.00000000    0.00000000
     The SCF correction term to forces
     atom    1 type  1   force =     0.00000000    0.00000000    0.00000272
     atom    2 type  1   force =     0.00000000    0.00004307   -0.00004301
     atom    3 type  1   force =    -0.00005100    0.00000000   -0.00002721
     atom    4 type  1   force =     0.00000793    0.00000793    0.00000135
     atom    5 type  1   force =     0.00000000   -0.00000000    0.00000554
     atom    6 type  1   force =    -0.00000000   -0.00004307   -0.00004301
     atom    7 type  1   force =     0.00004307    0.00000000   -0.00004301
     atom    8 type  1   force =     0.00000793   -0.00000793    0.00000135
     atom    9 type  1   force =    -0.00000000   -0.00000000    0.00000554
     atom   10 type  1   force =     0.00000000   -0.00005100   -0.00002721
     atom   11 type  1   force =     0.00005100    0.00000000   -0.00002721
     atom   12 type  1   force =    -0.00000793    0.00000793    0.00000135
     atom   13 type  1   force =     0.00000000   -0.00000000   -0.00002550
     atom   14 type  1   force =     0.00000000    0.00005100   -0.00002721
     atom   15 type  1   force =    -0.00004307    0.00000000   -0.00004301
     atom   16 type  1   force =    -0.00000793   -0.00000793    0.00000135

     Total force =     0.000194     Total SCF correction =     0.000172
     SCF correction compared to forces is large: reduce conv_thr to get better values


     Computing stress (Cartesian axis) and pressure


     negative rho (up, down):  2.829E+00 0.000E+00
          total   stress  (Ry/bohr**3)                   (kbar)     P=      -47.35
  -0.00043593   0.00000000   0.00000000          -64.13        0.00        0.00
   0.00000000  -0.00043593   0.00000000            0.00      -64.13        0.00
   0.00000000   0.00000000  -0.00009372            0.00        0.00      -13.79

     kinetic stress (kbar)  14912.06      0.00      0.00
                                0.00  14912.06      0.00
                                0.00      0.00  15145.14

     local   stress (kbar)-213322.62      0.00      0.00
                                0.00-213322.62      0.00
                                0.00      0.00 223695.30

     nonloc. stress (kbar)   -115.42      0.00      0.00
                                0.00   -115.42      0.00
                                0.00      0.00    -61.39

     hartree stress (kbar) 109207.59     -0.00     -0.00
                               -0.00 109207.59      0.00
                               -0.00      0.00-101636.03

     exc-cor stress (kbar)  11031.19     -0.00     -0.00
                               -0.00  11031.19     -0.00
                               -0.00     -0.00  11023.11

     corecor stress (kbar) -15198.52     -0.00      0.00
                               -0.00 -15198.52      0.00
                                0.00      0.00 -15204.32

     ewald   stress (kbar)  93421.58      0.00     -0.00
                                0.00  93421.58     -0.00
                               -0.00     -0.00-132975.58

     hubbard stress (kbar)      0.00      0.00      0.00
                                0.00      0.00      0.00
                                0.00      0.00      0.00

     DFT-D   stress (kbar)      0.00      0.00      0.00
                                0.00      0.00      0.00
                                0.00      0.00      0.00

     XDM     stress (kbar)      0.00      0.00      0.00
                                0.00      0.00      0.00
                                0.00      0.00      0.00

     dft-nl  stress (kbar)      0.00      0.00      0.00
                                0.00      0.00      0.00
                                0.00      0.00      0.00

     TS-vdW  stress (kbar)      0.00      0.00      0.00
                                0.00      0.00      0.00
                                0.00      0.00      0.00


     Energy error            =      4.2E-05
     Gradient error          =      5.8E-05

     bfgs converged in   6 scf cycles and   5 bfgs steps
     (criteria: energy <  1.0E-04 Ry, force <  1.0E-03 Ry/Bohr)

     End of BFGS Geometry Optimization

     Final energy   =   -3369.9747001208 Ry

     File ./surface.bfgs deleted, as requested
Begin final coordinates

ATOMIC_POSITIONS (angstrom)
Pt            0.0000000000        0.0000000000        0.0583871261
Pt            3.9767700000        1.9883807274        1.9299919729
Pt            1.9884011514        0.0000000000        1.9299860978
Pt            1.9883807478        1.9883807478        0.0583974577
Pt            0.0000000000        3.9767700000        0.0583944361
Pt            3.9767700000        5.9651592726        1.9299919729
Pt            1.9883807274        3.9767700000        1.9299919729
Pt            1.9883807478        5.9651592522        0.0583974577
Pt            3.9767700000        0.0000000000        0.0583944361
Pt            7.9535400000        1.9884011514        1.9299860978
Pt            5.9651388486       -0.0000000000        1.9299860978
Pt            5.9651592522        1.9883807478        0.0583974577
Pt            3.9767700000        3.9767700000        0.0584018882
Pt            7.9535400000        5.9651388486        1.9299860978
Pt            5.9651592726        3.9767700000        1.9299919729
Pt            5.9651592522        5.9651592522        0.0583974577
End final coordinates



     Writing output data file ./surface.save/

     init_run     :      2.03s CPU      2.12s WALL (       1 calls)
     electrons    :    249.93s CPU    257.46s WALL (       6 calls)
     update_pot   :      1.49s CPU      1.51s WALL (       5 calls)
     forces       :      5.85s CPU      6.04s WALL (       6 calls)
     stress       :     17.34s CPU     17.63s WALL (       6 calls)

     Called by init_run:
     wfcinit      :      1.36s CPU      1.40s WALL (       1 calls)
     wfcinit:atom :      0.01s CPU      0.01s WALL (      10 calls)
     wfcinit:wfcr :      1.28s CPU      1.32s WALL (      10 calls)
     potinit      :      0.12s CPU      0.13s WALL (       1 calls)
     hinit0       :      0.22s CPU      0.23s WALL (       1 calls)

     Called by electrons:
     c_bands      :    208.35s CPU    211.89s WALL (      66 calls)
     sum_band     :     33.15s CPU     35.40s WALL (      66 calls)
     v_of_rho     :      2.50s CPU      2.55s WALL (      71 calls)
     v_h          :      0.17s CPU      0.18s WALL (      71 calls)
     v_xc         :      2.71s CPU      2.77s WALL (      83 calls)
     newd         :      6.00s CPU      7.33s WALL (      71 calls)
     mix_rho      :      0.27s CPU      0.27s WALL (      66 calls)

     Called by c_bands:
     init_us_2    :      1.26s CPU      1.29s WALL (    1450 calls)
     cegterg      :    203.40s CPU    206.80s WALL (     660 calls)

     Called by sum_band:
     sum_band:wei :      0.05s CPU      0.05s WALL (      66 calls)
     sum_band:loo :     24.99s CPU     25.50s WALL (      66 calls)
     sum_band:buf :      0.31s CPU      0.33s WALL (     660 calls)
     sum_band:ini :      0.53s CPU      0.54s WALL (     660 calls)
     sum_band:cal :      7.20s CPU      7.24s WALL (     660 calls)
     sum_band:bec :      0.23s CPU      0.23s WALL (     660 calls)
     addusdens    :      4.86s CPU      6.58s WALL (      66 calls)
     addusd:skk   :      0.10s CPU      0.11s WALL (      66 calls)
     addusd:dgemm :      2.01s CPU      3.66s WALL (      66 calls)
     addusd:qvan2 :      2.27s CPU      2.29s WALL (      66 calls)

     Called by *egterg:
     cdiaghg      :     32.95s CPU     33.19s WALL (    1986 calls)
     cegterg:over :     21.05s CPU     21.19s WALL (    1386 calls)
     cegterg:upda :     10.55s CPU     10.69s WALL (    1386 calls)
     cegterg:last :     21.35s CPU     21.50s WALL (    1107 calls)
     cdiaghg:chol :      1.49s CPU      1.52s WALL (    1986 calls)
     cdiaghg:inve :      1.43s CPU      1.44s WALL (    1986 calls)
     cdiaghg:para :      4.01s CPU      4.05s WALL (    3972 calls)
     h_psi        :    100.63s CPU    102.93s WALL (    2056 calls)
     s_psi        :      8.63s CPU      8.71s WALL (    2056 calls)
     g_psi        :      0.19s CPU      0.20s WALL (    1386 calls)

     Called by h_psi:
     h_psi:calbec :     18.02s CPU     18.16s WALL (    2056 calls)
     vloc_psi     :     73.14s CPU     75.06s WALL (    2056 calls)
     add_vuspsi   :      8.99s CPU      9.09s WALL (    2056 calls)

     General routines
     calbec       :     28.97s CPU     29.19s WALL (    3016 calls)
     fft          :      2.34s CPU      2.37s WALL (    1067 calls)
     ffts         :      0.08s CPU      0.08s WALL (     137 calls)
     fftw         :     85.16s CPU     87.44s WALL (  578534 calls)
     interpolate  :      0.17s CPU      0.17s WALL (      71 calls)

     Parallel routines
     fft_scatt_xy :      5.17s CPU      5.21s WALL (  579738 calls)
     fft_scatt_yz :     40.95s CPU     42.06s WALL (  579738 calls)

     PWSCF        :   4m37.76s CPU   4m47.79s WALL


   This run was terminated on:   0:29:39   6Dec2021            

=------------------------------------------------------------------------------=
   JOB DONE.
=------------------------------------------------------------------------------=
