
     Program PWSCF v.6.7MaX starts on  6Dec2021 at  0:24:51 

     This program is part of the open-source Quantum ESPRESSO suite
     for quantum simulation of materials; please cite
         "P. Giannozzi et al., J. Phys.:Condens. Matter 21 395502 (2009);
         "P. Giannozzi et al., J. Phys.:Condens. Matter 29 465901 (2017);
          URL http://www.quantum-espresso.org", 
     in publications or presentations arising from this work. More details at
     http://www.quantum-espresso.org/quote

     Parallel version (MPI), running on    32 processors

     MPI processes distributed on     1 nodes
     R & G space division:  proc/nbgrp/npool/nimage =      32
     Reading input from pt_surface.100.k.qe.5_5_1.in

     Current dimensions of program PWSCF are:
     Max number of different atomic species (ntypx) = 10
     Max number of k-points (npk) =  40000
     Max angular momentum in pseudopotentials (lmaxx) =  3

     Subspace diagonalization in iterative solution of the eigenvalue problem:
     one sub-group per band group will be used
     scalapack distributed-memory algorithm (size of sub-group:  5*  5 procs)

     Found symmetry operation: I + (  0.2500  0.2500  0.0000)
     This is a supercell, fractional translations are disabled

     Parallelization info
     --------------------
     sticks:   dense  smooth     PW     G-vecs:    dense   smooth      PW
     Min         168      67     18                16362     4131     586
     Max         169      68     19                16371     4140     593
     Sum        5393    2161    593               523697   132301   18841



     bravais-lattice index     =            8
     lattice parameter (alat)  =      15.0300  a.u.
     unit-cell volume          =    5966.5648 (a.u.)^3
     number of atoms/cell      =           16
     number of atomic types    =            1
     number of electrons       =       256.00
     number of Kohn-Sham states=          154
     kinetic-energy cutoff     =      30.0000  Ry
     charge density cutoff     =     300.0000  Ry
     scf convergence threshold =      1.0E-06
     mixing beta               =       0.3000
     number of iterations used =            8  plain     mixing
     energy convergence thresh.=      1.0E-04
     force convergence thresh. =      1.0E-03
     Exchange-correlation=  SLA  PW   PBX  PBC
                           (   1   4   3   4   0   0   0)
     nstep                     =           50


     celldm(1)=  15.030012  celldm(2)=   1.000000  celldm(3)=   1.757302
     celldm(4)=   0.000000  celldm(5)=   0.000000  celldm(6)=   0.000000

     crystal axes: (cart. coord. in units of alat)
               a(1) = (   1.000000   0.000000   0.000000 )  
               a(2) = (   0.000000   1.000000   0.000000 )  
               a(3) = (   0.000000   0.000000   1.757302 )  

     reciprocal axes: (cart. coord. in units 2 pi/alat)
               b(1) = (  1.000000  0.000000  0.000000 )  
               b(2) = (  0.000000  1.000000  0.000000 )  
               b(3) = (  0.000000  0.000000  0.569054 )  


     PseudoPot. # 1 for Pt read from file:
     /expanse/lustre/projects/csd622/tpascal/nano110/qe/pseudo/pt_pbe_v1.4.uspp.F.UPF
     MD5 check sum: f09d6de1a584b5a045c4fc126da2d0c4
     Pseudo is Ultrasoft + core correction, Zval = 16.0
     Generated by new atomic code, or converted to UPF format
     Using radial grid of  985 points,  6 beta functions with: 
                l(1) =   0
                l(2) =   0
                l(3) =   1
                l(4) =   1
                l(5) =   2
                l(6) =   2
     Q(r) pseudized with  8 coefficients,  rinner =    1.300   1.300   1.300
                                                       1.300   1.300

     atomic species   valence    mass     pseudopotential
        Pt            16.00   195.08400     Pt( 1.00)

      8 Sym. Ops. (no inversion) found


                                    s                        frac. trans.

      isym =  1     identity                                     

 cryst.   s( 1) = (     1          0          0      )
                  (     0          1          0      )
                  (     0          0          1      )

 cart.    s( 1) = (  1.0000000  0.0000000  0.0000000 )
                  (  0.0000000  1.0000000  0.0000000 )
                  (  0.0000000  0.0000000  1.0000000 )


      isym =  2     180 deg rotation - cart. axis [0,0,1]        

 cryst.   s( 2) = (    -1          0          0      )
                  (     0         -1          0      )
                  (     0          0          1      )

 cart.    s( 2) = ( -1.0000000  0.0000000  0.0000000 )
                  (  0.0000000 -1.0000000  0.0000000 )
                  (  0.0000000  0.0000000  1.0000000 )


      isym =  3      90 deg rotation - cart. axis [0,0,-1]       

 cryst.   s( 3) = (     0         -1          0      )
                  (     1          0          0      )
                  (     0          0          1      )

 cart.    s( 3) = (  0.0000000  1.0000000  0.0000000 )
                  ( -1.0000000  0.0000000  0.0000000 )
                  (  0.0000000  0.0000000  1.0000000 )


      isym =  4      90 deg rotation - cart. axis [0,0,1]        

 cryst.   s( 4) = (     0          1          0      )
                  (    -1          0          0      )
                  (     0          0          1      )

 cart.    s( 4) = (  0.0000000 -1.0000000  0.0000000 )
                  (  1.0000000  0.0000000  0.0000000 )
                  (  0.0000000  0.0000000  1.0000000 )


      isym =  5     inv. 180 deg rotation - cart. axis [0,1,0]   

 cryst.   s( 5) = (     1          0          0      )
                  (     0         -1          0      )
                  (     0          0          1      )

 cart.    s( 5) = (  1.0000000  0.0000000  0.0000000 )
                  (  0.0000000 -1.0000000  0.0000000 )
                  (  0.0000000  0.0000000  1.0000000 )


      isym =  6     inv. 180 deg rotation - cart. axis [1,0,0]   

 cryst.   s( 6) = (    -1          0          0      )
                  (     0          1          0      )
                  (     0          0          1      )

 cart.    s( 6) = ( -1.0000000  0.0000000  0.0000000 )
                  (  0.0000000  1.0000000  0.0000000 )
                  (  0.0000000  0.0000000  1.0000000 )


      isym =  7     inv. 180 deg rotation - cart. axis [1,1,0]   

 cryst.   s( 7) = (     0         -1          0      )
                  (    -1          0          0      )
                  (     0          0          1      )

 cart.    s( 7) = (  0.0000000 -1.0000000  0.0000000 )
                  ( -1.0000000  0.0000000  0.0000000 )
                  (  0.0000000  0.0000000  1.0000000 )


      isym =  8     inv. 180 deg rotation - cart. axis [1,-1,0]  

 cryst.   s( 8) = (     0          1          0      )
                  (     1          0          0      )
                  (     0          0          1      )

 cart.    s( 8) = (  0.0000000  1.0000000  0.0000000 )
                  (  1.0000000  0.0000000  0.0000000 )
                  (  0.0000000  0.0000000  1.0000000 )


     point group C_4v (4mm) 
     there are  5 classes
     the character table:

       E     2C4   C2    2s_v  2s_d 
A_1    1.00  1.00  1.00  1.00  1.00
A_2    1.00  1.00  1.00 -1.00 -1.00
B_1    1.00 -1.00  1.00  1.00 -1.00
B_2    1.00 -1.00  1.00 -1.00  1.00
E      2.00  0.00 -2.00  0.00  0.00

     the symmetry operations in each class and the name of the first element:

     E        1
          identity                                               
     2C4      3    4
           90 deg rotation - cart. axis [0,0,-1]                 
     C2       2
          180 deg rotation - cart. axis [0,0,1]                  
     2s_v     5    6
          inv. 180 deg rotation - cart. axis [0,1,0]             
     2s_d     7    8
          inv. 180 deg rotation - cart. axis [1,1,0]             

   Cartesian axes

     site n.     atom                  positions (alat units)
         1           Pt  tau(   1) = (   0.0000000   0.0000000   0.0000000  )
         2           Pt  tau(   2) = (   0.5000000   0.2500000   0.2500000  )
         3           Pt  tau(   3) = (   0.2500000   0.0000000   0.2500000  )
         4           Pt  tau(   4) = (   0.2500000   0.2500000   0.0000000  )
         5           Pt  tau(   5) = (   0.0000000   0.5000000   0.0000000  )
         6           Pt  tau(   6) = (   0.5000000   0.7500000   0.2500000  )
         7           Pt  tau(   7) = (   0.2500000   0.5000000   0.2500000  )
         8           Pt  tau(   8) = (   0.2500000   0.7500000   0.0000000  )
         9           Pt  tau(   9) = (   0.5000000   0.0000000   0.0000000  )
        10           Pt  tau(  10) = (   1.0000000   0.2500000   0.2500000  )
        11           Pt  tau(  11) = (   0.7500000   0.0000000   0.2500000  )
        12           Pt  tau(  12) = (   0.7500000   0.2500000   0.0000000  )
        13           Pt  tau(  13) = (   0.5000000   0.5000000   0.0000000  )
        14           Pt  tau(  14) = (   1.0000000   0.7500000   0.2500000  )
        15           Pt  tau(  15) = (   0.7500000   0.5000000   0.2500000  )
        16           Pt  tau(  16) = (   0.7500000   0.7500000   0.0000000  )

   Crystallographic axes

     site n.     atom                  positions (cryst. coord.)
         1           Pt  tau(   1) = (  0.0000000  0.0000000  0.0000000  )
         2           Pt  tau(   2) = (  0.5000000  0.2500000  0.1422636  )
         3           Pt  tau(   3) = (  0.2500000  0.0000000  0.1422636  )
         4           Pt  tau(   4) = (  0.2500000  0.2500000  0.0000000  )
         5           Pt  tau(   5) = (  0.0000000  0.5000000  0.0000000  )
         6           Pt  tau(   6) = (  0.5000000  0.7500000  0.1422636  )
         7           Pt  tau(   7) = (  0.2500000  0.5000000  0.1422636  )
         8           Pt  tau(   8) = (  0.2500000  0.7500000  0.0000000  )
         9           Pt  tau(   9) = (  0.5000000  0.0000000  0.0000000  )
        10           Pt  tau(  10) = (  1.0000000  0.2500000  0.1422636  )
        11           Pt  tau(  11) = (  0.7500000  0.0000000  0.1422636  )
        12           Pt  tau(  12) = (  0.7500000  0.2500000  0.0000000  )
        13           Pt  tau(  13) = (  0.5000000  0.5000000  0.0000000  )
        14           Pt  tau(  14) = (  1.0000000  0.7500000  0.1422636  )
        15           Pt  tau(  15) = (  0.7500000  0.5000000  0.1422636  )
        16           Pt  tau(  16) = (  0.7500000  0.7500000  0.0000000  )

     number of k points=     6  Gaussian smearing, width (Ry)=  0.0030
                       cart. coord. in units 2pi/alat
        k(    1) = (   0.0000000   0.0000000   0.0000000), wk =   0.0800000
        k(    2) = (   0.0000000   0.2000000   0.0000000), wk =   0.3200000
        k(    3) = (   0.0000000   0.4000000   0.0000000), wk =   0.3200000
        k(    4) = (   0.2000000   0.2000000   0.0000000), wk =   0.3200000
        k(    5) = (   0.2000000   0.4000000   0.0000000), wk =   0.6400000
        k(    6) = (   0.4000000   0.4000000   0.0000000), wk =   0.3200000

                       cryst. coord.
        k(    1) = (   0.0000000   0.0000000   0.0000000), wk =   0.0800000
        k(    2) = (   0.0000000   0.2000000   0.0000000), wk =   0.3200000
        k(    3) = (   0.0000000   0.4000000   0.0000000), wk =   0.3200000
        k(    4) = (   0.2000000   0.2000000   0.0000000), wk =   0.3200000
        k(    5) = (   0.2000000   0.4000000   0.0000000), wk =   0.6400000
        k(    6) = (   0.4000000   0.4000000   0.0000000), wk =   0.3200000

     Dense  grid:   523697 G-vectors     FFT dimensions: (  90,  90, 150)

     Smooth grid:   132301 G-vectors     FFT dimensions: (  54,  54,  96)

     Dynamical RAM for                 wfc:       1.21 MB

     Dynamical RAM for     wfc (w. buffer):       8.50 MB

     Dynamical RAM for           str. fact:       0.25 MB

     Dynamical RAM for           local pot:       0.00 MB

     Dynamical RAM for          nlocal pot:       2.27 MB

     Dynamical RAM for                qrad:       1.39 MB

     Dynamical RAM for          rho,v,vnew:       1.68 MB

     Dynamical RAM for               rhoin:       0.56 MB

     Dynamical RAM for            rho*nmix:       4.00 MB

     Dynamical RAM for           G-vectors:       0.97 MB

     Dynamical RAM for          h,s,v(r/c):       0.17 MB

     Dynamical RAM for          <psi|beta>:       0.68 MB

     Dynamical RAM for                 psi:       2.43 MB

     Dynamical RAM for                hpsi:       2.43 MB

     Dynamical RAM for                spsi:       2.43 MB

     Dynamical RAM for      wfcinit/wfcrot:       3.87 MB

     Dynamical RAM for           addusdens:      50.46 MB

     Dynamical RAM for          addusforce:      58.14 MB

     Dynamical RAM for         addusstress:      50.21 MB

     Estimated static dynamical RAM per process >      21.66 MB

     Estimated max dynamical RAM per process >      79.80 MB

     Estimated total dynamical RAM >       2.49 GB

     Initial potential from superposition of free atoms

     starting charge  247.99982, renormalised to  256.00000

     negative rho (up, down):  3.024E+00 0.000E+00
     Starting wfcs are  192 randomized atomic wfcs

     total cpu time spent up to now is        1.6 secs

     Self-consistent Calculation

     iteration #  1     ecut=    30.00 Ry     beta= 0.30
     Davidson diagonalization with overlap
     ethr =  1.00E-02,  avg # of iterations =  7.5

     negative rho (up, down):  2.872E+00 0.000E+00

     total cpu time spent up to now is        5.0 secs

     total energy              =   -3364.02801386 Ry
     estimated scf accuracy    <      29.16324832 Ry

     iteration #  2     ecut=    30.00 Ry     beta= 0.30
     Davidson diagonalization with overlap
     ethr =  1.00E-02,  avg # of iterations =  2.7

     negative rho (up, down):  2.857E+00 0.000E+00

     total cpu time spent up to now is        7.7 secs

     total energy              =   -3369.35869063 Ry
     estimated scf accuracy    <       4.72427658 Ry

     iteration #  3     ecut=    30.00 Ry     beta= 0.30
     Davidson diagonalization with overlap
     ethr =  1.85E-03,  avg # of iterations =  2.3

     negative rho (up, down):  2.830E+00 0.000E+00

     total cpu time spent up to now is       10.2 secs

     total energy              =   -3369.92158210 Ry
     estimated scf accuracy    <       0.22072613 Ry

     iteration #  4     ecut=    30.00 Ry     beta= 0.30
     Davidson diagonalization with overlap
     ethr =  8.62E-05,  avg # of iterations =  7.8

     negative rho (up, down):  2.818E+00 0.000E+00

     total cpu time spent up to now is       13.9 secs

     total energy              =   -3369.94441550 Ry
     estimated scf accuracy    <       0.06300154 Ry

     iteration #  5     ecut=    30.00 Ry     beta= 0.30
     Davidson diagonalization with overlap
     ethr =  2.46E-05,  avg # of iterations =  3.8

     negative rho (up, down):  2.808E+00 0.000E+00

     total cpu time spent up to now is       16.7 secs

     total energy              =   -3369.92832356 Ry
     estimated scf accuracy    <       0.58650085 Ry

     iteration #  6     ecut=    30.00 Ry     beta= 0.30
     Davidson diagonalization with overlap
     ethr =  2.46E-05,  avg # of iterations =  2.2

     negative rho (up, down):  2.807E+00 0.000E+00

     total cpu time spent up to now is       19.0 secs

     total energy              =   -3369.95351622 Ry
     estimated scf accuracy    <       0.03151695 Ry

     iteration #  7     ecut=    30.00 Ry     beta= 0.30
     Davidson diagonalization with overlap
     ethr =  1.23E-05,  avg # of iterations =  3.3

     negative rho (up, down):  2.804E+00 0.000E+00

     total cpu time spent up to now is       21.2 secs

     total energy              =   -3369.95076969 Ry
     estimated scf accuracy    <       0.01309183 Ry

     iteration #  8     ecut=    30.00 Ry     beta= 0.30
     Davidson diagonalization with overlap
     ethr =  5.11E-06,  avg # of iterations =  3.5

     negative rho (up, down):  2.803E+00 0.000E+00

     total cpu time spent up to now is       23.8 secs

     total energy              =   -3369.95265133 Ry
     estimated scf accuracy    <       0.00109479 Ry

     iteration #  9     ecut=    30.00 Ry     beta= 0.30
     Davidson diagonalization with overlap
     ethr =  4.28E-07,  avg # of iterations =  2.0

     negative rho (up, down):  2.802E+00 0.000E+00

     total cpu time spent up to now is       26.1 secs

     total energy              =   -3369.95269823 Ry
     estimated scf accuracy    <       0.00057053 Ry

     iteration # 10     ecut=    30.00 Ry     beta= 0.30
     Davidson diagonalization with overlap
     ethr =  2.23E-07,  avg # of iterations =  2.0

     negative rho (up, down):  2.802E+00 0.000E+00

     total cpu time spent up to now is       28.3 secs

     total energy              =   -3369.95266811 Ry
     estimated scf accuracy    <       0.00135181 Ry

     iteration # 11     ecut=    30.00 Ry     beta= 0.30
     Davidson diagonalization with overlap
     ethr =  2.23E-07,  avg # of iterations =  2.0

     negative rho (up, down):  2.802E+00 0.000E+00

     total cpu time spent up to now is       30.6 secs

     total energy              =   -3369.95271398 Ry
     estimated scf accuracy    <       0.00032219 Ry

     iteration # 12     ecut=    30.00 Ry     beta= 0.30
     Davidson diagonalization with overlap
     ethr =  1.26E-07,  avg # of iterations =  2.0

     negative rho (up, down):  2.802E+00 0.000E+00

     total cpu time spent up to now is       33.0 secs

     total energy              =   -3369.95275022 Ry
     estimated scf accuracy    <       0.00013144 Ry

     iteration # 13     ecut=    30.00 Ry     beta= 0.30
     Davidson diagonalization with overlap
     ethr =  5.13E-08,  avg # of iterations =  1.0

     negative rho (up, down):  2.802E+00 0.000E+00

     total cpu time spent up to now is       35.0 secs

     total energy              =   -3369.95276286 Ry
     estimated scf accuracy    <       0.00000532 Ry

     iteration # 14     ecut=    30.00 Ry     beta= 0.30
     Davidson diagonalization with overlap
     ethr =  2.08E-09,  avg # of iterations =  2.0

     negative rho (up, down):  2.802E+00 0.000E+00

     total cpu time spent up to now is       37.4 secs

     End of self-consistent calculation

          k = 0.0000 0.0000 0.0000 ( 16575 PWs)   bands (ev):

   -50.3275 -50.3275 -50.3122 -50.3122 -50.3121 -50.3121 -50.2236 -50.2236
   -50.2235 -50.2235 -50.2133 -50.2133 -50.2100 -50.2100 -50.2099 -50.2099
   -50.1821 -50.1821 -50.1820 -50.1820 -50.1284 -50.1284 -50.1283 -50.1283
   -50.1186 -50.1186 -50.1156 -50.0638 -50.0638 -50.0638 -50.0637 -50.0425
   -50.0425 -50.0268 -50.0268 -50.0267 -50.0267 -49.9810 -49.9809 -49.9788
   -49.9787 -49.9787 -49.9786 -49.9379 -49.9378 -49.9377 -49.9377 -49.9226
    -5.5594  -3.5245  -3.2667  -3.2666  -3.2666  -3.2666  -3.2393  -3.2393
    -3.2393  -3.2393  -3.1187  -2.9928  -2.9928  -2.4838  -2.4838  -1.9904
    -1.9904  -1.9904  -1.9904  -1.7826  -1.7826  -1.7826  -1.7826  -1.7730
    -1.2244  -1.2243  -1.2243  -1.2243  -1.1170  -1.1170  -1.1170  -1.1170
    -0.6031  -0.6031  -0.6031  -0.6031  -0.4766  -0.4766  -0.4766  -0.4766
    -0.2874  -0.2873  -0.2873  -0.2873  -0.2790  -0.2790  -0.2789  -0.2789
    -0.0869  -0.0869   0.1916   0.4317   0.4318   0.4318   0.4318   0.5356
     0.5356   0.5356   0.5356   0.6736   0.6736   0.6737   0.6737   0.7613
     0.7613   0.9199   1.3291   1.3859   1.3859   1.3859   1.3859   1.4292
     1.4293   1.6756   1.6756   1.6756   1.6756   1.7173   1.7173   1.7173
     1.7174   1.9425   1.9425   2.0969   2.8856   2.8857   3.7932   3.7932
     3.7932   3.7932   3.9119   3.9119   3.9119   3.9119   4.0063   6.2153
     6.2153   6.2153   6.2153   6.4997   6.4997   7.4786   7.8280   8.0026
     8.0026   8.0026

     occupation numbers 
     1.0000   1.0000   1.0000   1.0000   1.0000   1.0000   1.0000   1.0000
     1.0000   1.0000   1.0000   1.0000   1.0000   1.0000   1.0000   1.0000
     1.0000   1.0000   1.0000   1.0000   1.0000   1.0000   1.0000   1.0000
     1.0000   1.0000   1.0000   1.0000   1.0000   1.0000   1.0000   1.0000
     1.0000   1.0000   1.0000   1.0000   1.0000   1.0000   1.0000   1.0000
     1.0000   1.0000   1.0000   1.0000   1.0000   1.0000   1.0000   1.0000
     1.0000   1.0000   1.0000   1.0000   1.0000   1.0000   1.0000   1.0000
     1.0000   1.0000   1.0000   1.0000   1.0000   1.0000   1.0000   1.0000
     1.0000   1.0000   1.0000   1.0000   1.0000   1.0000   1.0000   1.0000
     1.0000   1.0000   1.0000   1.0000   1.0000   1.0000   1.0000   1.0000
     1.0000   1.0000   1.0000   1.0000   1.0000   1.0000   1.0000   1.0000
     1.0000   1.0000   1.0000   1.0000   1.0000   1.0000   1.0000   1.0000
     1.0000   1.0000   1.0000   1.0000   1.0000   1.0000   1.0000   1.0000
     1.0000   1.0000   1.0000   1.0000   1.0000   1.0000   1.0000   1.0000
     1.0000   1.0000   1.0000   1.0000   1.0000   1.0000   1.0000   1.0000
     1.0000   1.0000   1.0000   1.0000   1.0000   1.0000   1.0000   1.0000
     1.0000   0.0212   0.0212   0.0000   0.0000   0.0000   0.0000   0.0000
     0.0000   0.0000   0.0000   0.0000   0.0000   0.0000   0.0000   0.0000
     0.0000   0.0000   0.0000   0.0000   0.0000   0.0000   0.0000   0.0000
     0.0000   0.0000

          k = 0.0000 0.2000 0.0000 ( 16540 PWs)   bands (ev):

   -50.3224 -50.3218 -50.3106 -50.3106 -50.3020 -50.3020 -50.2557 -50.2463
   -50.2452 -50.2451 -50.2253 -50.2252 -50.2125 -50.2092 -50.1950 -50.1913
   -50.1741 -50.1664 -50.1593 -50.1592 -50.1546 -50.1238 -50.1226 -50.1173
   -50.1148 -50.1148 -50.1019 -50.0750 -50.0750 -50.0630 -50.0630 -50.0466
   -50.0448 -50.0391 -50.0245 -50.0244 -50.0132 -49.9928 -49.9927 -49.9833
   -49.9783 -49.9656 -49.9655 -49.9483 -49.9398 -49.9397 -49.9297 -49.9225
    -5.4388  -3.8688  -3.4148  -3.3193  -3.3193  -3.2456  -3.2456  -3.1215
    -3.1215  -3.0509  -2.9365  -2.9109  -2.8465  -2.4532  -2.4472  -2.2008
    -2.1892  -2.1892  -2.0638  -2.0310  -1.9700  -1.7205  -1.7204  -1.7074
    -1.6386  -1.3447  -1.3447  -1.0932  -1.0932  -1.0596  -1.0596  -0.7745
    -0.7620  -0.5987  -0.5955  -0.5954  -0.5466  -0.4237  -0.4237  -0.4182
    -0.4181  -0.3869  -0.3868  -0.3058  -0.3058  -0.2233  -0.1605  -0.1386
     0.0355   0.1980   0.2169   0.2528   0.5633   0.5633   0.5864   0.5864
     0.6294   0.6294   0.6754   0.6883   0.7567   0.7671   0.7672   0.9097
     0.9247   1.1308   1.1726   1.3143   1.3304   1.3304   1.3949   1.4151
     1.5303   1.5303   1.6568   1.7022   1.7239   1.7239   1.7307   1.7562
     1.7879   1.7879   1.9255   2.0263   2.4958   2.7232   2.9974   2.9974
     3.0936   3.9570   3.9570   4.3599   4.4938   4.4938   4.8719   5.5889
     5.8468   5.8468   6.9719   6.9830   7.1082   7.1082   7.5873   7.9140
     8.0602   8.0603

     occupation numbers 
     1.0000   1.0000   1.0000   1.0000   1.0000   1.0000   1.0000   1.0000
     1.0000   1.0000   1.0000   1.0000   1.0000   1.0000   1.0000   1.0000
     1.0000   1.0000   1.0000   1.0000   1.0000   1.0000   1.0000   1.0000
     1.0000   1.0000   1.0000   1.0000   1.0000   1.0000   1.0000   1.0000
     1.0000   1.0000   1.0000   1.0000   1.0000   1.0000   1.0000   1.0000
     1.0000   1.0000   1.0000   1.0000   1.0000   1.0000   1.0000   1.0000
     1.0000   1.0000   1.0000   1.0000   1.0000   1.0000   1.0000   1.0000
     1.0000   1.0000   1.0000   1.0000   1.0000   1.0000   1.0000   1.0000
     1.0000   1.0000   1.0000   1.0000   1.0000   1.0000   1.0000   1.0000
     1.0000   1.0000   1.0000   1.0000   1.0000   1.0000   1.0000   1.0000
     1.0000   1.0000   1.0000   1.0000   1.0000   1.0000   1.0000   1.0000
     1.0000   1.0000   1.0000   1.0000   1.0000   1.0000   1.0000   1.0000
     1.0000   1.0000   1.0000   1.0000   1.0000   1.0000   1.0000   1.0000
     1.0000   1.0000   1.0000   1.0000   1.0000   1.0000   1.0000   1.0000
     1.0000   1.0000   1.0000   1.0000   1.0000   1.0000   1.0000   1.0000
     1.0000   1.0000   1.0000   1.0000   1.0000   1.0000   1.0000   1.0000
     0.9996   0.9996   0.0747   0.0000   0.0000   0.0000   0.0000   0.0000
     0.0000   0.0000   0.0000   0.0000   0.0000   0.0000   0.0000   0.0000
     0.0000   0.0000   0.0000   0.0000   0.0000   0.0000   0.0000   0.0000
     0.0000   0.0000

          k = 0.0000 0.4000 0.0000 ( 16540 PWs)   bands (ev):

   -50.3077 -50.3052 -50.2977 -50.2977 -50.2848 -50.2818 -50.2817 -50.2793
   -50.2746 -50.2746 -50.2542 -50.2542 -50.2098 -50.2042 -50.1970 -50.1783
   -50.1620 -50.1494 -50.1441 -50.1388 -50.1338 -50.1257 -50.1256 -50.1251
   -50.0963 -50.0963 -50.0913 -50.0913 -50.0779 -50.0727 -50.0726 -50.0589
   -50.0486 -50.0473 -50.0175 -50.0174 -50.0064 -50.0063 -50.0003 -49.9900
   -49.9706 -49.9599 -49.9543 -49.9542 -49.9454 -49.9453 -49.9248 -49.9227
    -5.0865  -4.5370  -3.3066  -3.3066  -3.2701  -3.2700  -3.0969  -2.8767
    -2.8766  -2.8523  -2.8083  -2.7353  -2.6775  -2.6096  -2.5465  -2.5464
    -2.5462  -2.3419  -2.3363  -2.3339  -2.1875  -2.0659  -1.5923  -1.5923
    -1.5130  -1.4557  -1.4557  -1.1966  -0.9780  -0.9780  -0.8593  -0.8593
    -0.7105  -0.7105  -0.6563  -0.6425  -0.6424  -0.6025  -0.6024  -0.5910
    -0.5910  -0.4664  -0.4587  -0.2801   0.0222   0.1194   0.1194   0.2019
     0.2027   0.2786   0.4631   0.4631   0.4690   0.5738   0.7061   0.7209
     0.7963   0.7963   0.8025   0.8251   0.8251   0.9632   0.9811   0.9812
     1.2463   1.2463   1.2484   1.2507   1.2878   1.3194   1.3194   1.3609
     1.3671   1.4714   1.5147   1.5393   1.5393   1.6779   1.8076   1.8774
     1.9178   1.9399   2.0359   2.0359   2.3293   2.3908   2.4116   2.4116
     2.5659   4.0155   4.1073   4.1073   4.3760   4.3760   5.1225   6.0219
     6.0282   6.7921   6.7921   7.4043   7.9128   7.9231   7.9232   8.0358
     8.1539   8.1540

     occupation numbers 
     1.0000   1.0000   1.0000   1.0000   1.0000   1.0000   1.0000   1.0000
     1.0000   1.0000   1.0000   1.0000   1.0000   1.0000   1.0000   1.0000
     1.0000   1.0000   1.0000   1.0000   1.0000   1.0000   1.0000   1.0000
     1.0000   1.0000   1.0000   1.0000   1.0000   1.0000   1.0000   1.0000
     1.0000   1.0000   1.0000   1.0000   1.0000   1.0000   1.0000   1.0000
     1.0000   1.0000   1.0000   1.0000   1.0000   1.0000   1.0000   1.0000
     1.0000   1.0000   1.0000   1.0000   1.0000   1.0000   1.0000   1.0000
     1.0000   1.0000   1.0000   1.0000   1.0000   1.0000   1.0000   1.0000
     1.0000   1.0000   1.0000   1.0000   1.0000   1.0000   1.0000   1.0000
     1.0000   1.0000   1.0000   1.0000   1.0000   1.0000   1.0000   1.0000
     1.0000   1.0000   1.0000   1.0000   1.0000   1.0000   1.0000   1.0000
     1.0000   1.0000   1.0000   1.0000   1.0000   1.0000   1.0000   1.0000
     1.0000   1.0000   1.0000   1.0000   1.0000   1.0000   1.0000   1.0000
     1.0000   1.0000   1.0000   1.0000   1.0000   1.0000   1.0000   1.0000
     1.0000   1.0000   1.0000   1.0000   1.0000   1.0000   1.0000   1.0000
     1.0000   1.0000   1.0000   1.0000   1.0000   1.0000   0.9959   0.5889
     0.1201   0.0262   0.0000   0.0000   0.0000   0.0000   0.0000   0.0000
     0.0000   0.0000   0.0000   0.0000   0.0000   0.0000   0.0000   0.0000
     0.0000   0.0000   0.0000   0.0000   0.0000   0.0000   0.0000   0.0000
     0.0000   0.0000

          k = 0.2000 0.2000 0.0000 ( 16545 PWs)   bands (ev):

   -50.3182 -50.3182 -50.3096 -50.3095 -50.3006 -50.2837 -50.2700 -50.2700
   -50.2575 -50.2575 -50.2179 -50.2179 -50.2073 -50.2073 -50.1911 -50.1911
   -50.1768 -50.1767 -50.1430 -50.1430 -50.1413 -50.1413 -50.1398 -50.1209
   -50.1151 -50.0888 -50.0888 -50.0825 -50.0824 -50.0772 -50.0536 -50.0529
   -50.0427 -50.0373 -50.0373 -50.0106 -50.0105 -50.0075 -49.9806 -49.9805
   -49.9787 -49.9786 -49.9539 -49.9504 -49.9504 -49.9314 -49.9314 -49.9226
    -5.3240  -3.8436  -3.8436  -3.5193  -3.3468  -3.1035  -3.0607  -3.0606
    -2.9485  -2.8565  -2.8565  -2.8482  -2.8482  -2.4748  -2.4748  -2.4202
    -2.4202  -2.1574  -2.1573  -1.8873  -1.8873  -1.8322  -1.8322  -1.6416
    -1.6015  -1.6015  -1.4759  -1.1676  -1.1676  -0.9412  -0.7773  -0.7773
    -0.7306  -0.7306  -0.7249  -0.7249  -0.5085  -0.5085  -0.4902  -0.4902
    -0.4153  -0.3345  -0.3345  -0.2393  -0.1531  -0.0693  -0.0172  -0.0172
     0.1743   0.1743   0.2010   0.2208   0.2985   0.2985   0.3213   0.6783
     0.6783   0.8425   0.8425   0.8752   0.8752   0.9848   0.9848   0.9903
     0.9903   1.0908   1.2202   1.2202   1.2868   1.3518   1.3519   1.4368
     1.4368   1.4593   1.5173   1.5174   1.5341   1.8271   1.8271   1.9178
     1.9590   2.0323   2.0822   2.0822   2.0866   2.3528   2.3529   3.1122
     3.1123   3.9193   4.1877   4.1877   4.6371   4.9654   4.9654   6.0478
     6.0478   6.4542   6.4542   6.5652   7.0671   7.0671   7.5683   7.6953
     7.9994   9.1205

     occupation numbers 
     1.0000   1.0000   1.0000   1.0000   1.0000   1.0000   1.0000   1.0000
     1.0000   1.0000   1.0000   1.0000   1.0000   1.0000   1.0000   1.0000
     1.0000   1.0000   1.0000   1.0000   1.0000   1.0000   1.0000   1.0000
     1.0000   1.0000   1.0000   1.0000   1.0000   1.0000   1.0000   1.0000
     1.0000   1.0000   1.0000   1.0000   1.0000   1.0000   1.0000   1.0000
     1.0000   1.0000   1.0000   1.0000   1.0000   1.0000   1.0000   1.0000
     1.0000   1.0000   1.0000   1.0000   1.0000   1.0000   1.0000   1.0000
     1.0000   1.0000   1.0000   1.0000   1.0000   1.0000   1.0000   1.0000
     1.0000   1.0000   1.0000   1.0000   1.0000   1.0000   1.0000   1.0000
     1.0000   1.0000   1.0000   1.0000   1.0000   1.0000   1.0000   1.0000
     1.0000   1.0000   1.0000   1.0000   1.0000   1.0000   1.0000   1.0000
     1.0000   1.0000   1.0000   1.0000   1.0000   1.0000   1.0000   1.0000
     1.0000   1.0000   1.0000   1.0000   1.0000   1.0000   1.0000   1.0000
     1.0000   1.0000   1.0000   1.0000   1.0000   1.0000   1.0000   1.0000
     1.0000   1.0000   1.0000   1.0000   1.0000   1.0000   1.0000   1.0000
     1.0000   1.0000   1.0000   1.0000   1.0000   0.9754   0.9754   0.1201
     0.0046   0.0000   0.0000   0.0000   0.0000   0.0000   0.0000   0.0000
     0.0000   0.0000   0.0000   0.0000   0.0000   0.0000   0.0000   0.0000
     0.0000   0.0000   0.0000   0.0000   0.0000   0.0000   0.0000   0.0000
     0.0000   0.0000

          k = 0.2000 0.4000 0.0000 ( 16551 PWs)   bands (ev):

   -50.3077 -50.3057 -50.3056 -50.2982 -50.2914 -50.2913 -50.2850 -50.2803
   -50.2791 -50.2564 -50.2516 -50.2235 -50.2014 -50.1924 -50.1912 -50.1897
   -50.1700 -50.1629 -50.1591 -50.1435 -50.1344 -50.1259 -50.1201 -50.1163
   -50.1117 -50.1104 -50.0982 -50.0896 -50.0688 -50.0681 -50.0591 -50.0551
   -50.0458 -50.0456 -50.0316 -50.0214 -50.0031 -49.9976 -49.9918 -49.9872
   -49.9729 -49.9663 -49.9621 -49.9567 -49.9439 -49.9363 -49.9261 -49.9235
    -4.9899  -4.4713  -3.7737  -3.6668  -3.1490  -2.9863  -2.9613  -2.8790
    -2.8414  -2.7701  -2.7535  -2.7420  -2.7039  -2.6538  -2.6322  -2.4311
    -2.3350  -2.3251  -2.3073  -2.2234  -2.1615  -2.0300  -1.6861  -1.6549
    -1.5622  -1.4619  -1.4472  -1.4030  -1.2132  -1.1375  -0.8021  -0.7992
    -0.7790  -0.7529  -0.7425  -0.6488  -0.6052  -0.5819  -0.4692  -0.4164
    -0.3402  -0.2931  -0.2900  -0.2559  -0.1294  -0.0325  -0.0055   0.1574
     0.1886   0.3132   0.3534   0.4022   0.4050   0.4809   0.4883   0.5577
     0.6412   0.7048   0.8204   1.0653   1.0691   1.0693   1.0703   1.1072
     1.1549   1.1672   1.1805   1.2148   1.2250   1.2255   1.2350   1.3333
     1.3635   1.3896   1.4186   1.4376   1.5654   1.7159   1.7482   1.8931
     1.9329   1.9596   2.0066   2.0222   2.0369   2.3974   2.7229   3.0844
     3.1944   3.4267   3.4610   4.5116   5.2417   5.3022   5.4281   6.0502
     6.1419   6.1767   6.9325   7.2932   7.4267   7.5548   7.7312   7.7729
     7.8444   8.0182

     occupation numbers 
     1.0000   1.0000   1.0000   1.0000   1.0000   1.0000   1.0000   1.0000
     1.0000   1.0000   1.0000   1.0000   1.0000   1.0000   1.0000   1.0000
     1.0000   1.0000   1.0000   1.0000   1.0000   1.0000   1.0000   1.0000
     1.0000   1.0000   1.0000   1.0000   1.0000   1.0000   1.0000   1.0000
     1.0000   1.0000   1.0000   1.0000   1.0000   1.0000   1.0000   1.0000
     1.0000   1.0000   1.0000   1.0000   1.0000   1.0000   1.0000   1.0000
     1.0000   1.0000   1.0000   1.0000   1.0000   1.0000   1.0000   1.0000
     1.0000   1.0000   1.0000   1.0000   1.0000   1.0000   1.0000   1.0000
     1.0000   1.0000   1.0000   1.0000   1.0000   1.0000   1.0000   1.0000
     1.0000   1.0000   1.0000   1.0000   1.0000   1.0000   1.0000   1.0000
     1.0000   1.0000   1.0000   1.0000   1.0000   1.0000   1.0000   1.0000
     1.0000   1.0000   1.0000   1.0000   1.0000   1.0000   1.0000   1.0000
     1.0000   1.0000   1.0000   1.0000   1.0000   1.0000   1.0000   1.0000
     1.0000   1.0000   1.0000   1.0000   1.0000   1.0000   1.0000   1.0000
     1.0000   1.0000   1.0000   1.0000   1.0000   1.0000   1.0000   1.0000
     1.0000   1.0000   1.0000   1.0000   1.0000   1.0000   1.0000   0.3748
     0.0449   0.0044   0.0000   0.0000   0.0000   0.0000   0.0000   0.0000
     0.0000   0.0000   0.0000   0.0000   0.0000   0.0000   0.0000   0.0000
     0.0000   0.0000   0.0000   0.0000   0.0000   0.0000   0.0000   0.0000
     0.0000   0.0000

          k = 0.4000 0.4000 0.0000 ( 16566 PWs)   bands (ev):

   -50.3053 -50.3052 -50.3046 -50.3046 -50.3012 -50.3012 -50.2962 -50.2962
   -50.2548 -50.2246 -50.2236 -50.2236 -50.1930 -50.1902 -50.1901 -50.1799
   -50.1798 -50.1625 -50.1625 -50.1585 -50.1510 -50.1510 -50.1295 -50.1295
   -50.1055 -50.1043 -50.1043 -50.0920 -50.0555 -50.0538 -50.0538 -50.0472
   -50.0439 -50.0430 -50.0430 -50.0357 -49.9900 -49.9900 -49.9796 -49.9796
   -49.9789 -49.9788 -49.9687 -49.9687 -49.9358 -49.9299 -49.9299 -49.9258
    -4.7111  -4.2848  -4.2848  -4.0048  -3.1299  -3.0353  -2.9923  -2.9923
    -2.6677  -2.6677  -2.6555  -2.6555  -2.5818  -2.5818  -2.4505  -2.4505
    -2.2638  -2.2028  -2.2028  -1.9693  -1.9693  -1.8932  -1.8932  -1.8618
    -1.8618  -1.6520  -1.6344  -1.6344  -1.2550  -0.9740  -0.9740  -0.8552
    -0.8552  -0.8439  -0.8077  -0.6041  -0.5368  -0.5368  -0.1791  -0.1791
    -0.1293  -0.1293  -0.1117  -0.0736  -0.0736  -0.0657  -0.0583  -0.0583
    -0.0506   0.1206   0.1732   0.3479   0.3479   0.3483   0.3483   0.6297
     0.6441   0.6441   0.8687   0.8687   0.9030   0.9031   0.9082   0.9587
     0.9587   0.9695   0.9695   1.0838   1.4014   1.4014   1.4071   1.4071
     1.4418   1.4419   1.4868   1.5957   1.5957   1.6700   1.7032   1.7033
     1.9503   2.0557   2.0558   2.0602   2.1028   2.4696   2.4696   2.7766
     3.9506   3.9507   4.8581   4.8581   5.4489   5.4490   5.7906   6.4109
     6.4109   6.4830   6.4830   6.6831   6.6832   6.9892   7.1805   7.1805
     8.2754   8.3322

     occupation numbers 
     1.0000   1.0000   1.0000   1.0000   1.0000   1.0000   1.0000   1.0000
     1.0000   1.0000   1.0000   1.0000   1.0000   1.0000   1.0000   1.0000
     1.0000   1.0000   1.0000   1.0000   1.0000   1.0000   1.0000   1.0000
     1.0000   1.0000   1.0000   1.0000   1.0000   1.0000   1.0000   1.0000
     1.0000   1.0000   1.0000   1.0000   1.0000   1.0000   1.0000   1.0000
     1.0000   1.0000   1.0000   1.0000   1.0000   1.0000   1.0000   1.0000
     1.0000   1.0000   1.0000   1.0000   1.0000   1.0000   1.0000   1.0000
     1.0000   1.0000   1.0000   1.0000   1.0000   1.0000   1.0000   1.0000
     1.0000   1.0000   1.0000   1.0000   1.0000   1.0000   1.0000   1.0000
     1.0000   1.0000   1.0000   1.0000   1.0000   1.0000   1.0000   1.0000
     1.0000   1.0000   1.0000   1.0000   1.0000   1.0000   1.0000   1.0000
     1.0000   1.0000   1.0000   1.0000   1.0000   1.0000   1.0000   1.0000
     1.0000   1.0000   1.0000   1.0000   1.0000   1.0000   1.0000   1.0000
     1.0000   1.0000   1.0000   1.0000   1.0000   1.0000   1.0000   1.0000
     1.0000   1.0000   1.0000   1.0000   1.0000   1.0000   1.0000   1.0000
     1.0000   1.0000   1.0000   1.0000   1.0000   1.0000   1.0000   1.0000
     0.0107   0.0000   0.0000   0.0000   0.0000   0.0000   0.0000   0.0000
     0.0000   0.0000   0.0000   0.0000   0.0000   0.0000   0.0000   0.0000
     0.0000   0.0000   0.0000   0.0000   0.0000   0.0000   0.0000   0.0000
     0.0000   0.0000

     the Fermi energy is     1.8839 ev

!    total energy              =   -3369.95276355 Ry
     estimated scf accuracy    <       0.00000048 Ry
     smearing contrib. (-TS)   =      -0.00146793 Ry
     internal energy E=F+TS    =   -3369.95129562 Ry

     The total energy is F=E-TS. E is the sum of the following terms:
     one-electron contribution =   -9112.25536629 Ry
     hartree contribution      =    4602.11264952 Ry
     xc contribution           =    -908.02427440 Ry
     ewald contribution        =    2048.21569554 Ry

     convergence has been achieved in  14 iterations

     negative rho (up, down):  2.802E+00 0.000E+00

     Forces acting on atoms (cartesian axes, Ry/au):

     atom    1 type  1   force =     0.00000000    0.00000000    0.02724975
     atom    2 type  1   force =     0.00000000   -0.00001149   -0.02724510
     atom    3 type  1   force =    -0.00000527    0.00000000   -0.02719807
     atom    4 type  1   force =     0.00000767    0.00000767    0.02722136
     atom    5 type  1   force =     0.00000000    0.00000000    0.02722177
     atom    6 type  1   force =     0.00000000    0.00001149   -0.02724510
     atom    7 type  1   force =    -0.00001149    0.00000000   -0.02724510
     atom    8 type  1   force =     0.00000767   -0.00000767    0.02722136
     atom    9 type  1   force =     0.00000000    0.00000000    0.02722177
     atom   10 type  1   force =     0.00000000   -0.00000527   -0.02719807
     atom   11 type  1   force =     0.00000527    0.00000000   -0.02719807
     atom   12 type  1   force =    -0.00000767    0.00000767    0.02722136
     atom   13 type  1   force =     0.00000000    0.00000000    0.02719395
     atom   14 type  1   force =     0.00000000    0.00000527   -0.02719807
     atom   15 type  1   force =     0.00001149    0.00000000   -0.02724510
     atom   16 type  1   force =    -0.00000767   -0.00000767    0.02722136
     The non-local contrib.  to forces
     atom    1 type  1   force =     0.00000000    0.00000000   -0.07360337
     atom    2 type  1   force =     0.00000000    0.00000048    0.07362508
     atom    3 type  1   force =    -0.00000059   -0.00000000    0.07364049
     atom    4 type  1   force =     0.00000949    0.00000949   -0.07362265
     atom    5 type  1   force =     0.00000000    0.00000000   -0.07361240
     atom    6 type  1   force =     0.00000000   -0.00000048    0.07362508
     atom    7 type  1   force =     0.00000048    0.00000000    0.07362508
     atom    8 type  1   force =     0.00000949   -0.00000949   -0.07362265
     atom    9 type  1   force =     0.00000000    0.00000000   -0.07361240
     atom   10 type  1   force =     0.00000000   -0.00000059    0.07364049
     atom   11 type  1   force =     0.00000059   -0.00000000    0.07364049
     atom   12 type  1   force =    -0.00000949    0.00000949   -0.07362265
     atom   13 type  1   force =     0.00000000    0.00000000   -0.07362701
     atom   14 type  1   force =    -0.00000000    0.00000059    0.07364049
     atom   15 type  1   force =    -0.00000048    0.00000000    0.07362508
     atom   16 type  1   force =    -0.00000949   -0.00000949   -0.07362265
     The ionic contribution  to forces
     atom    1 type  1   force =     0.00000000    0.00000000  -77.02202201
     atom    2 type  1   force =     0.00000000   -0.00000000   77.02202201
     atom    3 type  1   force =    -0.00000000    0.00000000   77.02202201
     atom    4 type  1   force =    -0.00000000   -0.00000000  -77.02202201
     atom    5 type  1   force =     0.00000000    0.00000000  -77.02202201
     atom    6 type  1   force =    -0.00000000   -0.00000000   77.02202201
     atom    7 type  1   force =    -0.00000000    0.00000000   77.02202201
     atom    8 type  1   force =    -0.00000000    0.00000000  -77.02202201
     atom    9 type  1   force =     0.00000000    0.00000000  -77.02202201
     atom   10 type  1   force =     0.00000000   -0.00000000   77.02202201
     atom   11 type  1   force =     0.00000000    0.00000000   77.02202201
     atom   12 type  1   force =     0.00000000   -0.00000000  -77.02202201
     atom   13 type  1   force =     0.00000000    0.00000000  -77.02202201
     atom   14 type  1   force =    -0.00000000   -0.00000000   77.02202201
     atom   15 type  1   force =    -0.00000000   -0.00000000   77.02202201
     atom   16 type  1   force =     0.00000000    0.00000000  -77.02202201
     The local contribution  to forces
     atom    1 type  1   force =    -0.00000000   -0.00000000   77.09615252
     atom    2 type  1   force =     0.00000000   -0.00016077  -77.09628974
     atom    3 type  1   force =    -0.00020469   -0.00000000  -77.09655821
     atom    4 type  1   force =    -0.00037123   -0.00037123   77.09620463
     atom    5 type  1   force =    -0.00000000    0.00000000   77.09615817
     atom    6 type  1   force =     0.00000000    0.00016077  -77.09628974
     atom    7 type  1   force =    -0.00016077    0.00000000  -77.09628974
     atom    8 type  1   force =    -0.00037123    0.00037123   77.09620463
     atom    9 type  1   force =     0.00000000   -0.00000000   77.09615817
     atom   10 type  1   force =     0.00000000   -0.00020469  -77.09655821
     atom   11 type  1   force =     0.00020469   -0.00000000  -77.09655821
     atom   12 type  1   force =     0.00037123   -0.00037123   77.09620463
     atom   13 type  1   force =     0.00000000    0.00000000   77.09626479
     atom   14 type  1   force =     0.00000000    0.00020469  -77.09655821
     atom   15 type  1   force =     0.00016077    0.00000000  -77.09628974
     atom   16 type  1   force =     0.00037123    0.00037123   77.09620463
     The core correction contribution to forces
     atom    1 type  1   force =     0.00000000    0.00000000    0.02535562
     atom    2 type  1   force =     0.00000000   -0.00000179   -0.02534794
     atom    3 type  1   force =    -0.00000308    0.00000000   -0.02534565
     atom    4 type  1   force =    -0.00000424   -0.00000424    0.02534742
     atom    5 type  1   force =     0.00000000    0.00000000    0.02535121
     atom    6 type  1   force =     0.00000000    0.00000179   -0.02534794
     atom    7 type  1   force =    -0.00000179   -0.00000000   -0.02534794
     atom    8 type  1   force =    -0.00000424    0.00000424    0.02534742
     atom    9 type  1   force =    -0.00000000    0.00000000    0.02535121
     atom   10 type  1   force =    -0.00000000   -0.00000308   -0.02534565
     atom   11 type  1   force =     0.00000308    0.00000000   -0.02534565
     atom   12 type  1   force =     0.00000424   -0.00000424    0.02534742
     atom   13 type  1   force =    -0.00000000    0.00000000    0.02534504
     atom   14 type  1   force =     0.00000000    0.00000308   -0.02534565
     atom   15 type  1   force =     0.00000179    0.00000000   -0.02534794
     atom   16 type  1   force =     0.00000424    0.00000424    0.02534742
     The Hubbard contrib.    to forces
     atom    1 type  1   force =     0.00000000    0.00000000    0.00000000
     atom    2 type  1   force =     0.00000000    0.00000000    0.00000000
     atom    3 type  1   force =     0.00000000    0.00000000    0.00000000
     atom    4 type  1   force =     0.00000000    0.00000000    0.00000000
     atom    5 type  1   force =     0.00000000    0.00000000    0.00000000
     atom    6 type  1   force =     0.00000000    0.00000000    0.00000000
     atom    7 type  1   force =     0.00000000    0.00000000    0.00000000
     atom    8 type  1   force =     0.00000000    0.00000000    0.00000000
     atom    9 type  1   force =     0.00000000    0.00000000    0.00000000
     atom   10 type  1   force =     0.00000000    0.00000000    0.00000000
     atom   11 type  1   force =     0.00000000    0.00000000    0.00000000
     atom   12 type  1   force =     0.00000000    0.00000000    0.00000000
     atom   13 type  1   force =     0.00000000    0.00000000    0.00000000
     atom   14 type  1   force =     0.00000000    0.00000000    0.00000000
     atom   15 type  1   force =     0.00000000    0.00000000    0.00000000
     atom   16 type  1   force =     0.00000000    0.00000000    0.00000000
     The SCF correction term to forces
     atom    1 type  1   force =    -0.00000000   -0.00000000    0.00137035
     atom    2 type  1   force =     0.00000000    0.00015059   -0.00125115
     atom    3 type  1   force =     0.00020309    0.00000000   -0.00095334
     atom    4 type  1   force =     0.00037365    0.00037365    0.00131734
     atom    5 type  1   force =    -0.00000000    0.00000000    0.00135017
     atom    6 type  1   force =     0.00000000   -0.00015059   -0.00125115
     atom    7 type  1   force =     0.00015059   -0.00000000   -0.00125115
     atom    8 type  1   force =     0.00037365   -0.00037365    0.00131734
     atom    9 type  1   force =     0.00000000   -0.00000000    0.00135017
     atom   10 type  1   force =     0.00000000    0.00020309   -0.00095334
     atom   11 type  1   force =    -0.00020309    0.00000000   -0.00095334
     atom   12 type  1   force =    -0.00037365    0.00037365    0.00131734
     atom   13 type  1   force =    -0.00000000    0.00000000    0.00123652
     atom   14 type  1   force =     0.00000000   -0.00020309   -0.00095334
     atom   15 type  1   force =    -0.00015059   -0.00000000   -0.00125115
     atom   16 type  1   force =    -0.00037365   -0.00037365    0.00131734

     Total force =     0.108886     Total SCF correction =     0.005026


     Computing stress (Cartesian axis) and pressure


     negative rho (up, down):  2.802E+00 0.000E+00
          total   stress  (Ry/bohr**3)                   (kbar)     P=      -66.61
  -0.00056469   0.00000000   0.00000000          -83.07        0.00        0.00
   0.00000000  -0.00056469   0.00000000            0.00      -83.07        0.00
   0.00000000   0.00000000  -0.00022905            0.00        0.00      -33.69

     kinetic stress (kbar)  14897.60      0.00      0.00
                                0.00  14897.60      0.00
                                0.00      0.00  15142.85

     local   stress (kbar)-205998.44      0.00     -0.00
                                0.00-205998.44     -0.00
                               -0.00     -0.00 215721.49

     nonloc. stress (kbar)   -122.91      0.00      0.00
                                0.00   -122.91      0.00
                                0.00      0.00    -73.69

     hartree stress (kbar) 105686.15     -0.00     -0.00
                               -0.00 105686.15      0.00
                               -0.00      0.00 -97907.65

     exc-cor stress (kbar)  11033.93      0.00      0.00
                                0.00  11033.93      0.00
                                0.00      0.00  11025.86

     corecor stress (kbar) -15197.77     -0.00      0.00
                               -0.00 -15197.77     -0.00
                                0.00     -0.00 -15204.37

     ewald   stress (kbar)  89618.37     -0.00      0.00
                               -0.00  89618.37      0.00
                                0.00      0.00-128738.18

     hubbard stress (kbar)      0.00      0.00      0.00
                                0.00      0.00      0.00
                                0.00      0.00      0.00

     DFT-D   stress (kbar)      0.00      0.00      0.00
                                0.00      0.00      0.00
                                0.00      0.00      0.00

     XDM     stress (kbar)      0.00      0.00      0.00
                                0.00      0.00      0.00
                                0.00      0.00      0.00

     dft-nl  stress (kbar)      0.00      0.00      0.00
                                0.00      0.00      0.00
                                0.00      0.00      0.00

     TS-vdW  stress (kbar)      0.00      0.00      0.00
                                0.00      0.00      0.00
                                0.00      0.00      0.00



     BFGS Geometry Optimization
     Energy error            =      0.0E+00
     Gradient error          =      2.7E-02

     number of scf cycles    =   1
     number of bfgs steps    =   0

     energy   new            =   -3369.9527635461 Ry

     new trust radius        =       0.0272497463 bohr
     new conv_thr            =       0.0000010000 Ry


ATOMIC_POSITIONS (angstrom)
Pt            0.0000000000        0.0000000000        0.0144199447
Pt            3.9767700000        1.9883789211        1.9739675125
Pt            1.9883822101        0.0000000000        1.9739924028
Pt            1.9883890606        1.9883890606        0.0144049221
Pt            0.0000000000        3.9767700000        0.0144051426
Pt            3.9767700000        5.9651610789        1.9739675125
Pt            1.9883789211        3.9767700000        1.9739675125
Pt            1.9883890606        5.9651509394        0.0144049221
Pt            3.9767700000        0.0000000000        0.0144051426
Pt            7.9535400000        1.9883822101        1.9739924028
Pt            5.9651577899        0.0000000000        1.9739924028
Pt            5.9651509394        1.9883890606        0.0144049221
Pt            3.9767700000        3.9767700000        0.0143904206
Pt            7.9535400000        5.9651577899        1.9739924028
Pt            5.9651610789        3.9767700000        1.9739675125
Pt            5.9651509394        5.9651509394        0.0144049221



     Writing output data file ./surface.save/
     NEW-OLD atomic charge density approx. for the potential

     negative rho (up, down):  2.810E+00 0.000E+00

     total cpu time spent up to now is       41.6 secs

     Self-consistent Calculation

     iteration #  1     ecut=    30.00 Ry     beta= 0.30
     Davidson diagonalization with overlap
     ethr =  1.00E-06,  avg # of iterations =  6.8

     negative rho (up, down):  2.810E+00 0.000E+00

     total cpu time spent up to now is       47.3 secs

     total energy              =   -3369.96317279 Ry
     estimated scf accuracy    <       0.00066021 Ry

     iteration #  2     ecut=    30.00 Ry     beta= 0.30
     Davidson diagonalization with overlap
     ethr =  2.58E-07,  avg # of iterations =  1.8

     negative rho (up, down):  2.810E+00 0.000E+00

     total cpu time spent up to now is       49.4 secs

     total energy              =   -3369.96310911 Ry
     estimated scf accuracy    <       0.00062738 Ry

     iteration #  3     ecut=    30.00 Ry     beta= 0.30
     Davidson diagonalization with overlap
     ethr =  2.45E-07,  avg # of iterations =  1.2

     negative rho (up, down):  2.810E+00 0.000E+00

     total cpu time spent up to now is       51.4 secs

     total energy              =   -3369.96307530 Ry
     estimated scf accuracy    <       0.00182698 Ry

     iteration #  4     ecut=    30.00 Ry     beta= 0.30
     Davidson diagonalization with overlap
     ethr =  2.45E-07,  avg # of iterations =  1.0

     negative rho (up, down):  2.810E+00 0.000E+00

     total cpu time spent up to now is       53.4 secs

     total energy              =   -3369.96314084 Ry
     estimated scf accuracy    <       0.00024326 Ry

     iteration #  5     ecut=    30.00 Ry     beta= 0.30
     Davidson diagonalization with overlap
     ethr =  9.50E-08,  avg # of iterations =  1.0

     negative rho (up, down):  2.810E+00 0.000E+00

     total cpu time spent up to now is       55.3 secs

     total energy              =   -3369.96316186 Ry
     estimated scf accuracy    <       0.00009472 Ry

     iteration #  6     ecut=    30.00 Ry     beta= 0.30
     Davidson diagonalization with overlap
     ethr =  3.70E-08,  avg # of iterations =  1.0

     negative rho (up, down):  2.810E+00 0.000E+00

     total cpu time spent up to now is       57.3 secs

     total energy              =   -3369.96316629 Ry
     estimated scf accuracy    <       0.00009030 Ry

     iteration #  7     ecut=    30.00 Ry     beta= 0.30
     Davidson diagonalization with overlap
     ethr =  3.53E-08,  avg # of iterations =  1.0

     negative rho (up, down):  2.810E+00 0.000E+00

     total cpu time spent up to now is       59.3 secs

     total energy              =   -3369.96317127 Ry
     estimated scf accuracy    <       0.00000416 Ry

     iteration #  8     ecut=    30.00 Ry     beta= 0.30
     Davidson diagonalization with overlap
     ethr =  1.62E-09,  avg # of iterations =  2.0

     negative rho (up, down):  2.810E+00 0.000E+00

     total cpu time spent up to now is       61.5 secs

     total energy              =   -3369.96317152 Ry
     estimated scf accuracy    <       0.00000364 Ry

     iteration #  9     ecut=    30.00 Ry     beta= 0.30
     Davidson diagonalization with overlap
     ethr =  1.42E-09,  avg # of iterations =  1.0

     negative rho (up, down):  2.810E+00 0.000E+00

     total cpu time spent up to now is       63.4 secs

     total energy              =   -3369.96317179 Ry
     estimated scf accuracy    <       0.00000128 Ry

     iteration # 10     ecut=    30.00 Ry     beta= 0.30
     Davidson diagonalization with overlap
     ethr =  5.02E-10,  avg # of iterations =  1.0

     negative rho (up, down):  2.810E+00 0.000E+00

     total cpu time spent up to now is       65.4 secs

     End of self-consistent calculation

          k = 0.0000 0.0000 0.0000 ( 16575 PWs)   bands (ev):

   -50.3577 -50.3577 -50.3400 -50.3400 -50.3400 -50.3400 -50.2528 -50.2528
   -50.2527 -50.2527 -50.2387 -50.2387 -50.2386 -50.2386 -50.2319 -50.2319
   -50.2076 -50.2076 -50.2076 -50.2076 -50.1477 -50.1477 -50.1477 -50.1477
   -50.1468 -50.1468 -50.1456 -50.0879 -50.0879 -50.0879 -50.0879 -50.0626
   -50.0626 -50.0501 -50.0500 -50.0500 -50.0500 -50.0045 -50.0045 -49.9990
   -49.9989 -49.9989 -49.9989 -49.9562 -49.9561 -49.9561 -49.9561 -49.9399
    -5.6271  -3.5694  -3.3435  -3.3435  -3.3435  -3.3435  -3.3062  -3.3062
    -3.3062  -3.3062  -3.1929  -3.0594  -3.0594  -2.5675  -2.5675  -2.0858
    -2.0858  -2.0858  -2.0858  -1.8441  -1.8440  -1.8440  -1.8440  -1.7607
    -1.2197  -1.2197  -1.2197  -1.2197  -1.1908  -1.1908  -1.1908  -1.1908
    -0.6634  -0.6634  -0.6634  -0.6634  -0.5138  -0.5137  -0.5137  -0.5137
    -0.3684  -0.3684  -0.3684  -0.3684  -0.2930  -0.2929  -0.2929  -0.2929
    -0.1605  -0.1605   0.2364   0.4380   0.4381   0.4381   0.4381   0.5007
     0.5007   0.5007   0.5007   0.6834   0.6834   0.6834   0.6834   0.7745
     0.7745   0.9228   1.2656   1.3991   1.3991   1.3991   1.3991   1.4433
     1.4433   1.7103   1.7103   1.7104   1.7104   1.7361   1.7361   1.7361
     1.7361   1.9493   1.9493   2.0981   2.8594   2.8594   3.7873   3.7873
     3.7873   3.7873   3.9641   3.9641   3.9641   3.9642   4.0525   6.2206
     6.2206   6.2206   6.2206   6.4710   6.4710   7.4845   7.8363   8.0303
     8.0303   8.0303

     occupation numbers 
     1.0000   1.0000   1.0000   1.0000   1.0000   1.0000   1.0000   1.0000
     1.0000   1.0000   1.0000   1.0000   1.0000   1.0000   1.0000   1.0000
     1.0000   1.0000   1.0000   1.0000   1.0000   1.0000   1.0000   1.0000
     1.0000   1.0000   1.0000   1.0000   1.0000   1.0000   1.0000   1.0000
     1.0000   1.0000   1.0000   1.0000   1.0000   1.0000   1.0000   1.0000
     1.0000   1.0000   1.0000   1.0000   1.0000   1.0000   1.0000   1.0000
     1.0000   1.0000   1.0000   1.0000   1.0000   1.0000   1.0000   1.0000
     1.0000   1.0000   1.0000   1.0000   1.0000   1.0000   1.0000   1.0000
     1.0000   1.0000   1.0000   1.0000   1.0000   1.0000   1.0000   1.0000
     1.0000   1.0000   1.0000   1.0000   1.0000   1.0000   1.0000   1.0000
     1.0000   1.0000   1.0000   1.0000   1.0000   1.0000   1.0000   1.0000
     1.0000   1.0000   1.0000   1.0000   1.0000   1.0000   1.0000   1.0000
     1.0000   1.0000   1.0000   1.0000   1.0000   1.0000   1.0000   1.0000
     1.0000   1.0000   1.0000   1.0000   1.0000   1.0000   1.0000   1.0000
     1.0000   1.0000   1.0000   1.0000   1.0000   1.0000   1.0000   1.0000
     1.0000   1.0000   1.0000   1.0000   1.0000   1.0000   1.0000   1.0000
     1.0000   0.0376   0.0376   0.0000   0.0000   0.0000   0.0000   0.0000
     0.0000   0.0000   0.0000   0.0000   0.0000   0.0000   0.0000   0.0000
     0.0000   0.0000   0.0000   0.0000   0.0000   0.0000   0.0000   0.0000
     0.0000   0.0000

          k = 0.0000 0.2000 0.0000 ( 16540 PWs)   bands (ev):

   -50.3526 -50.3519 -50.3387 -50.3387 -50.3295 -50.3295 -50.2853 -50.2754
   -50.2737 -50.2737 -50.2531 -50.2531 -50.2316 -50.2278 -50.2202 -50.2189
   -50.2028 -50.1931 -50.1852 -50.1852 -50.1737 -50.1520 -50.1508 -50.1472
   -50.1352 -50.1352 -50.1215 -50.0998 -50.0998 -50.0865 -50.0865 -50.0668
   -50.0651 -50.0618 -50.0476 -50.0475 -50.0367 -50.0137 -50.0136 -50.0069
   -50.0014 -49.9852 -49.9851 -49.9676 -49.9581 -49.9581 -49.9473 -49.9398
    -5.5065  -3.9370  -3.4606  -3.3936  -3.3936  -3.3131  -3.3131  -3.2009
    -3.2009  -3.1254  -3.0025  -2.9776  -2.9103  -2.5365  -2.5314  -2.2882
    -2.2793  -2.2793  -2.1246  -2.1196  -2.0361  -1.7797  -1.7797  -1.7181
    -1.6961  -1.3527  -1.3527  -1.1669  -1.1669  -1.0489  -1.0489  -0.8252
    -0.7792  -0.6502  -0.6502  -0.6484  -0.6084  -0.4986  -0.4986  -0.4945
    -0.4945  -0.3886  -0.3886  -0.3509  -0.3508  -0.2906  -0.2111  -0.2012
     0.0014   0.1952   0.2429   0.2678   0.5195   0.5195   0.5806   0.5806
     0.5968   0.5968   0.6881   0.6910   0.7665   0.7754   0.7754   0.9077
     0.9299   1.1109   1.1292   1.3196   1.3421   1.3421   1.4025   1.4287
     1.5473   1.5473   1.6700   1.7410   1.7423   1.7423   1.7574   1.7599
     1.8197   1.8198   1.9338   2.0286   2.4673   2.7048   2.9925   2.9925
     3.1277   4.0074   4.0074   4.4040   4.5091   4.5092   4.9385   5.5662
     5.8382   5.8382   6.9461   7.0151   7.1130   7.1130   7.5936   7.9228
     8.0864   8.0864

     occupation numbers 
     1.0000   1.0000   1.0000   1.0000   1.0000   1.0000   1.0000   1.0000
     1.0000   1.0000   1.0000   1.0000   1.0000   1.0000   1.0000   1.0000
     1.0000   1.0000   1.0000   1.0000   1.0000   1.0000   1.0000   1.0000
     1.0000   1.0000   1.0000   1.0000   1.0000   1.0000   1.0000   1.0000
     1.0000   1.0000   1.0000   1.0000   1.0000   1.0000   1.0000   1.0000
     1.0000   1.0000   1.0000   1.0000   1.0000   1.0000   1.0000   1.0000
     1.0000   1.0000   1.0000   1.0000   1.0000   1.0000   1.0000   1.0000
     1.0000   1.0000   1.0000   1.0000   1.0000   1.0000   1.0000   1.0000
     1.0000   1.0000   1.0000   1.0000   1.0000   1.0000   1.0000   1.0000
     1.0000   1.0000   1.0000   1.0000   1.0000   1.0000   1.0000   1.0000
     1.0000   1.0000   1.0000   1.0000   1.0000   1.0000   1.0000   1.0000
     1.0000   1.0000   1.0000   1.0000   1.0000   1.0000   1.0000   1.0000
     1.0000   1.0000   1.0000   1.0000   1.0000   1.0000   1.0000   1.0000
     1.0000   1.0000   1.0000   1.0000   1.0000   1.0000   1.0000   1.0000
     1.0000   1.0000   1.0000   1.0000   1.0000   1.0000   1.0000   1.0000
     1.0000   1.0000   1.0000   1.0000   1.0000   1.0000   1.0000   1.0000
     0.9966   0.9966   0.1073   0.0000   0.0000   0.0000   0.0000   0.0000
     0.0000   0.0000   0.0000   0.0000   0.0000   0.0000   0.0000   0.0000
     0.0000   0.0000   0.0000   0.0000   0.0000   0.0000   0.0000   0.0000
     0.0000   0.0000

          k = 0.0000 0.4000 0.0000 ( 16540 PWs)   bands (ev):

   -50.3377 -50.3350 -50.3260 -50.3260 -50.3146 -50.3090 -50.3090 -50.3087
   -50.3030 -50.3030 -50.2815 -50.2815 -50.2301 -50.2263 -50.2158 -50.1972
   -50.1907 -50.1769 -50.1732 -50.1672 -50.1617 -50.1548 -50.1515 -50.1515
   -50.1217 -50.1217 -50.1130 -50.1130 -50.0978 -50.0953 -50.0953 -50.0789
   -50.0694 -50.0691 -50.0400 -50.0400 -50.0281 -50.0281 -50.0239 -50.0136
   -49.9927 -49.9806 -49.9733 -49.9732 -49.9640 -49.9640 -49.9421 -49.9400
    -5.1543  -4.6050  -3.3784  -3.3784  -3.3394  -3.3394  -3.1450  -2.9588
    -2.9588  -2.9283  -2.8722  -2.7977  -2.7444  -2.6614  -2.6319  -2.6319
    -2.6258  -2.4278  -2.4192  -2.4008  -2.2766  -2.1478  -1.6406  -1.6406
    -1.5049  -1.4839  -1.4838  -1.1938  -1.0515  -1.0515  -0.8704  -0.8704
    -0.7575  -0.7575  -0.7176  -0.6959  -0.6959  -0.6552  -0.6552  -0.5910
    -0.5910  -0.5281  -0.5208  -0.3489  -0.0048   0.0671   0.0672   0.1933
     0.2470   0.2794   0.4109   0.4109   0.4766   0.5571   0.6469   0.7199
     0.7679   0.7680   0.7689   0.8040   0.8040   0.9525   0.9906   0.9906
     1.2429   1.2580   1.2608   1.2608   1.2871   1.3298   1.3298   1.3572
     1.3793   1.4667   1.5090   1.5523   1.5523   1.6462   1.8264   1.8899
     1.9451   1.9488   2.0596   2.0596   2.3314   2.4093   2.4197   2.4197
     2.5610   3.9998   4.1523   4.1523   4.4119   4.4120   5.1636   6.0590
     6.0988   6.7750   6.7750   7.4666   7.9202   7.9307   7.9308   8.0149
     8.1736   8.1737

     occupation numbers 
     1.0000   1.0000   1.0000   1.0000   1.0000   1.0000   1.0000   1.0000
     1.0000   1.0000   1.0000   1.0000   1.0000   1.0000   1.0000   1.0000
     1.0000   1.0000   1.0000   1.0000   1.0000   1.0000   1.0000   1.0000
     1.0000   1.0000   1.0000   1.0000   1.0000   1.0000   1.0000   1.0000
     1.0000   1.0000   1.0000   1.0000   1.0000   1.0000   1.0000   1.0000
     1.0000   1.0000   1.0000   1.0000   1.0000   1.0000   1.0000   1.0000
     1.0000   1.0000   1.0000   1.0000   1.0000   1.0000   1.0000   1.0000
     1.0000   1.0000   1.0000   1.0000   1.0000   1.0000   1.0000   1.0000
     1.0000   1.0000   1.0000   1.0000   1.0000   1.0000   1.0000   1.0000
     1.0000   1.0000   1.0000   1.0000   1.0000   1.0000   1.0000   1.0000
     1.0000   1.0000   1.0000   1.0000   1.0000   1.0000   1.0000   1.0000
     1.0000   1.0000   1.0000   1.0000   1.0000   1.0000   1.0000   1.0000
     1.0000   1.0000   1.0000   1.0000   1.0000   1.0000   1.0000   1.0000
     1.0000   1.0000   1.0000   1.0000   1.0000   1.0000   1.0000   1.0000
     1.0000   1.0000   1.0000   1.0000   1.0000   1.0000   1.0000   1.0000
     1.0000   1.0000   1.0000   1.0000   1.0000   1.0000   0.9934   0.6103
     0.0511   0.0391   0.0000   0.0000   0.0000   0.0000   0.0000   0.0000
     0.0000   0.0000   0.0000   0.0000   0.0000   0.0000   0.0000   0.0000
     0.0000   0.0000   0.0000   0.0000   0.0000   0.0000   0.0000   0.0000
     0.0000   0.0000

          k = 0.2000 0.2000 0.0000 ( 16545 PWs)   bands (ev):

   -50.3482 -50.3482 -50.3373 -50.3373 -50.3290 -50.3109 -50.2988 -50.2988
   -50.2858 -50.2858 -50.2464 -50.2464 -50.2265 -50.2264 -50.2188 -50.2188
   -50.2013 -50.2013 -50.1682 -50.1682 -50.1682 -50.1632 -50.1632 -50.1506
   -50.1431 -50.1094 -50.1094 -50.1065 -50.1064 -50.1026 -50.0766 -50.0732
   -50.0630 -50.0600 -50.0600 -50.0338 -50.0338 -50.0290 -50.0037 -50.0037
   -49.9990 -49.9990 -49.9728 -49.9699 -49.9698 -49.9491 -49.9491 -49.9399
    -5.3917  -3.9118  -3.9118  -3.5909  -3.3961  -3.1835  -3.1382  -3.1382
    -3.0207  -2.9226  -2.9226  -2.9134  -2.9134  -2.5524  -2.5524  -2.5041
    -2.5041  -2.2458  -2.2457  -1.9555  -1.9555  -1.8957  -1.8957  -1.6807
    -1.6807  -1.6314  -1.4921  -1.1850  -1.1850  -0.9211  -0.7935  -0.7935
    -0.7824  -0.7824  -0.7748  -0.7748  -0.5605  -0.5605  -0.5495  -0.5495
    -0.4771  -0.3798  -0.3798  -0.3229  -0.2321  -0.1448  -0.0309  -0.0308
     0.1584   0.1584   0.1735   0.2460   0.2934   0.3015   0.3016   0.6864
     0.6864   0.8340   0.8340   0.8406   0.8406   0.9876   0.9876   0.9975
     0.9975   1.0254   1.2247   1.2247   1.2862   1.3587   1.3587   1.4539
     1.4539   1.4641   1.5339   1.5339   1.5506   1.8532   1.8532   1.9393
     1.9620   2.0420   2.0851   2.1006   2.1006   2.3347   2.3347   3.1460
     3.1460   3.9472   4.1816   4.1816   4.6801   5.0278   5.0278   6.0274
     6.0274   6.4670   6.4670   6.5465   7.0978   7.0978   7.5729   7.7019
     8.0088   9.1438

     occupation numbers 
     1.0000   1.0000   1.0000   1.0000   1.0000   1.0000   1.0000   1.0000
     1.0000   1.0000   1.0000   1.0000   1.0000   1.0000   1.0000   1.0000
     1.0000   1.0000   1.0000   1.0000   1.0000   1.0000   1.0000   1.0000
     1.0000   1.0000   1.0000   1.0000   1.0000   1.0000   1.0000   1.0000
     1.0000   1.0000   1.0000   1.0000   1.0000   1.0000   1.0000   1.0000
     1.0000   1.0000   1.0000   1.0000   1.0000   1.0000   1.0000   1.0000
     1.0000   1.0000   1.0000   1.0000   1.0000   1.0000   1.0000   1.0000
     1.0000   1.0000   1.0000   1.0000   1.0000   1.0000   1.0000   1.0000
     1.0000   1.0000   1.0000   1.0000   1.0000   1.0000   1.0000   1.0000
     1.0000   1.0000   1.0000   1.0000   1.0000   1.0000   1.0000   1.0000
     1.0000   1.0000   1.0000   1.0000   1.0000   1.0000   1.0000   1.0000
     1.0000   1.0000   1.0000   1.0000   1.0000   1.0000   1.0000   1.0000
     1.0000   1.0000   1.0000   1.0000   1.0000   1.0000   1.0000   1.0000
     1.0000   1.0000   1.0000   1.0000   1.0000   1.0000   1.0000   1.0000
     1.0000   1.0000   1.0000   1.0000   1.0000   1.0000   1.0000   1.0000
     1.0000   1.0000   1.0000   1.0000   1.0000   0.9394   0.9393   0.0762
     0.0133   0.0000   0.0000   0.0000   0.0000   0.0000   0.0000   0.0000
     0.0000   0.0000   0.0000   0.0000   0.0000   0.0000   0.0000   0.0000
     0.0000   0.0000   0.0000   0.0000   0.0000   0.0000   0.0000   0.0000
     0.0000   0.0000

          k = 0.2000 0.4000 0.0000 ( 16551 PWs)   bands (ev):

   -50.3374 -50.3351 -50.3338 -50.3258 -50.3205 -50.3197 -50.3139 -50.3088
   -50.3067 -50.2834 -50.2802 -50.2506 -50.2221 -50.2183 -50.2139 -50.2119
   -50.1914 -50.1899 -50.1871 -50.1682 -50.1633 -50.1534 -50.1441 -50.1418
   -50.1383 -50.1348 -50.1212 -50.1155 -50.0897 -50.0897 -50.0800 -50.0773
   -50.0677 -50.0663 -50.0541 -50.0435 -50.0255 -50.0209 -50.0132 -50.0104
   -49.9950 -49.9863 -49.9829 -49.9763 -49.9623 -49.9542 -49.9434 -49.9408
    -5.0577  -4.5393  -3.8422  -3.7364  -3.2063  -3.0659  -3.0352  -2.9481
    -2.9077  -2.8484  -2.8344  -2.8062  -2.7675  -2.7222  -2.6986  -2.5155
    -2.4104  -2.4072  -2.3906  -2.2900  -2.2440  -2.1116  -1.7516  -1.7058
    -1.5937  -1.5398  -1.4579  -1.4402  -1.2861  -1.1357  -0.8488  -0.8116
    -0.7817  -0.7541  -0.7477  -0.7043  -0.6410  -0.6249  -0.5059  -0.4196
    -0.4074  -0.3662  -0.3521  -0.3360  -0.2047  -0.0974  -0.0186   0.1248
     0.2334   0.2986   0.3175   0.3794   0.3809   0.4746   0.4786   0.5640
     0.6329   0.6448   0.7950   1.0528   1.0589   1.0610   1.0720   1.1244
     1.1609   1.1751   1.1788   1.2041   1.2185   1.2271   1.2354   1.3361
     1.3770   1.4047   1.4271   1.4426   1.5650   1.6992   1.7679   1.9020
     1.9523   1.9845   2.0290   2.0362   2.0419   2.4160   2.7266   3.0783
     3.2272   3.4563   3.4577   4.4961   5.2929   5.3424   5.4501   6.0489
     6.1779   6.2396   6.9249   7.3194   7.4139   7.5712   7.7447   7.7566
     7.8929   8.0259

     occupation numbers 
     1.0000   1.0000   1.0000   1.0000   1.0000   1.0000   1.0000   1.0000
     1.0000   1.0000   1.0000   1.0000   1.0000   1.0000   1.0000   1.0000
     1.0000   1.0000   1.0000   1.0000   1.0000   1.0000   1.0000   1.0000
     1.0000   1.0000   1.0000   1.0000   1.0000   1.0000   1.0000   1.0000
     1.0000   1.0000   1.0000   1.0000   1.0000   1.0000   1.0000   1.0000
     1.0000   1.0000   1.0000   1.0000   1.0000   1.0000   1.0000   1.0000
     1.0000   1.0000   1.0000   1.0000   1.0000   1.0000   1.0000   1.0000
     1.0000   1.0000   1.0000   1.0000   1.0000   1.0000   1.0000   1.0000
     1.0000   1.0000   1.0000   1.0000   1.0000   1.0000   1.0000   1.0000
     1.0000   1.0000   1.0000   1.0000   1.0000   1.0000   1.0000   1.0000
     1.0000   1.0000   1.0000   1.0000   1.0000   1.0000   1.0000   1.0000
     1.0000   1.0000   1.0000   1.0000   1.0000   1.0000   1.0000   1.0000
     1.0000   1.0000   1.0000   1.0000   1.0000   1.0000   1.0000   1.0000
     1.0000   1.0000   1.0000   1.0000   1.0000   1.0000   1.0000   1.0000
     1.0000   1.0000   1.0000   1.0000   1.0000   1.0000   1.0000   1.0000
     1.0000   1.0000   1.0000   1.0000   1.0000   1.0000   1.0000   0.4449
     0.0299   0.0014   0.0000   0.0000   0.0000   0.0000   0.0000   0.0000
     0.0000   0.0000   0.0000   0.0000   0.0000   0.0000   0.0000   0.0000
     0.0000   0.0000   0.0000   0.0000   0.0000   0.0000   0.0000   0.0000
     0.0000   0.0000

          k = 0.4000 0.4000 0.0000 ( 16566 PWs)   bands (ev):

   -50.3341 -50.3341 -50.3325 -50.3325 -50.3296 -50.3296 -50.3244 -50.3244
   -50.2835 -50.2523 -50.2523 -50.2515 -50.2217 -50.2174 -50.2173 -50.2011
   -50.2011 -50.1863 -50.1856 -50.1856 -50.1726 -50.1725 -50.1527 -50.1527
   -50.1329 -50.1313 -50.1313 -50.1185 -50.0774 -50.0755 -50.0755 -50.0690
   -50.0650 -50.0650 -50.0648 -50.0580 -50.0124 -50.0123 -50.0018 -50.0018
   -50.0000 -50.0000 -49.9896 -49.9896 -49.9537 -49.9474 -49.9474 -49.9431
    -4.7788  -4.3527  -4.3527  -4.0730  -3.1937  -3.1103  -3.0627  -3.0626
    -2.7430  -2.7430  -2.7237  -2.7237  -2.6489  -2.6489  -2.5267  -2.5267
    -2.3302  -2.2851  -2.2851  -2.0453  -2.0453  -1.9728  -1.9728  -1.9249
    -1.9249  -1.7093  -1.7093  -1.6994  -1.2508  -0.9720  -0.9720  -0.8961
    -0.8961  -0.8907  -0.7948  -0.6494  -0.5532  -0.5532  -0.2120  -0.2119
    -0.2115  -0.2114  -0.1966  -0.1314  -0.0792  -0.0792  -0.0701  -0.0701
    -0.0656   0.0968   0.1611   0.3000   0.3000   0.3185   0.3185   0.5581
     0.6597   0.6597   0.8901   0.8901   0.9070   0.9108   0.9108   0.9693
     0.9693   0.9779   0.9779   1.0897   1.3860   1.3860   1.4005   1.4005
     1.4519   1.4520   1.5010   1.6013   1.6013   1.6784   1.7019   1.7019
     1.9597   2.0767   2.0767   2.0822   2.1203   2.4894   2.4894   2.8008
     3.9408   3.9408   4.8468   4.8468   5.4339   5.4339   5.8280   6.4039
     6.4039   6.5154   6.5154   6.7267   6.7267   7.0150   7.2110   7.2110
     8.3204   8.3405

     occupation numbers 
     1.0000   1.0000   1.0000   1.0000   1.0000   1.0000   1.0000   1.0000
     1.0000   1.0000   1.0000   1.0000   1.0000   1.0000   1.0000   1.0000
     1.0000   1.0000   1.0000   1.0000   1.0000   1.0000   1.0000   1.0000
     1.0000   1.0000   1.0000   1.0000   1.0000   1.0000   1.0000   1.0000
     1.0000   1.0000   1.0000   1.0000   1.0000   1.0000   1.0000   1.0000
     1.0000   1.0000   1.0000   1.0000   1.0000   1.0000   1.0000   1.0000
     1.0000   1.0000   1.0000   1.0000   1.0000   1.0000   1.0000   1.0000
     1.0000   1.0000   1.0000   1.0000   1.0000   1.0000   1.0000   1.0000
     1.0000   1.0000   1.0000   1.0000   1.0000   1.0000   1.0000   1.0000
     1.0000   1.0000   1.0000   1.0000   1.0000   1.0000   1.0000   1.0000
     1.0000   1.0000   1.0000   1.0000   1.0000   1.0000   1.0000   1.0000
     1.0000   1.0000   1.0000   1.0000   1.0000   1.0000   1.0000   1.0000
     1.0000   1.0000   1.0000   1.0000   1.0000   1.0000   1.0000   1.0000
     1.0000   1.0000   1.0000   1.0000   1.0000   1.0000   1.0000   1.0000
     1.0000   1.0000   1.0000   1.0000   1.0000   1.0000   1.0000   1.0000
     1.0000   1.0000   1.0000   1.0000   1.0000   1.0000   1.0000   1.0000
     0.0162   0.0000   0.0000   0.0000   0.0000   0.0000   0.0000   0.0000
     0.0000   0.0000   0.0000   0.0000   0.0000   0.0000   0.0000   0.0000
     0.0000   0.0000   0.0000   0.0000   0.0000   0.0000   0.0000   0.0000
     0.0000   0.0000

     the Fermi energy is     1.8980 ev

!    total energy              =   -3369.96317194 Ry
     estimated scf accuracy    <       0.00000008 Ry
     smearing contrib. (-TS)   =      -0.00151433 Ry
     internal energy E=F+TS    =   -3369.96165761 Ry

     The total energy is F=E-TS. E is the sum of the following terms:
     one-electron contribution =   -9178.80852411 Ry
     hartree contribution      =    4635.17076895 Ry
     xc contribution           =    -908.12953378 Ry
     ewald contribution        =    2081.80563133 Ry

     convergence has been achieved in  10 iterations

     negative rho (up, down):  2.810E+00 0.000E+00

     Forces acting on atoms (cartesian axes, Ry/au):

     atom    1 type  1   force =     0.00000000    0.00000000    0.02060571
     atom    2 type  1   force =     0.00000000    0.00001240   -0.02059189
     atom    3 type  1   force =    -0.00000868    0.00000000   -0.02060808
     atom    4 type  1   force =    -0.00001295   -0.00001295    0.02060293
     atom    5 type  1   force =     0.00000000    0.00000000    0.02059651
     atom    6 type  1   force =     0.00000000   -0.00001240   -0.02059189
     atom    7 type  1   force =     0.00001240    0.00000000   -0.02059189
     atom    8 type  1   force =    -0.00001295    0.00001295    0.02060293
     atom    9 type  1   force =     0.00000000    0.00000000    0.02059651
     atom   10 type  1   force =     0.00000000   -0.00000868   -0.02060808
     atom   11 type  1   force =     0.00000868    0.00000000   -0.02060808
     atom   12 type  1   force =     0.00001295   -0.00001295    0.02060293
     atom   13 type  1   force =     0.00000000    0.00000000    0.02058942
     atom   14 type  1   force =     0.00000000    0.00000868   -0.02060808
     atom   15 type  1   force =    -0.00001240    0.00000000   -0.02059189
     atom   16 type  1   force =     0.00001295    0.00001295    0.02060293
     The non-local contrib.  to forces
     atom    1 type  1   force =     0.00000000    0.00000000   -0.07674837
     atom    2 type  1   force =     0.00000000    0.00000964    0.07674012
     atom    3 type  1   force =    -0.00000174   -0.00000000    0.07673109
     atom    4 type  1   force =    -0.00000858   -0.00000858   -0.07674062
     atom    5 type  1   force =     0.00000000    0.00000000   -0.07673450
     atom    6 type  1   force =     0.00000000   -0.00000964    0.07674012
     atom    7 type  1   force =     0.00000964    0.00000000    0.07674012
     atom    8 type  1   force =    -0.00000858    0.00000858   -0.07674062
     atom    9 type  1   force =     0.00000000    0.00000000   -0.07673450
     atom   10 type  1   force =     0.00000000   -0.00000174    0.07673109
     atom   11 type  1   force =     0.00000174    0.00000000    0.07673109
     atom   12 type  1   force =     0.00000858   -0.00000858   -0.07674062
     atom   13 type  1   force =     0.00000000    0.00000000   -0.07673375
     atom   14 type  1   force =    -0.00000000    0.00000174    0.07673109
     atom   15 type  1   force =    -0.00000964   -0.00000000    0.07674012
     atom   16 type  1   force =     0.00000858    0.00000858   -0.07674062
     The ionic contribution  to forces
     atom    1 type  1   force =     0.00000000   -0.00000000  -77.21788978
     atom    2 type  1   force =    -0.00000000    0.00041163   77.21808470
     atom    3 type  1   force =     0.00017252    0.00000000   77.21897235
     atom    4 type  1   force =    -0.00037215   -0.00037215  -77.21853484
     atom    5 type  1   force =     0.00000000    0.00000000  -77.21857942
     atom    6 type  1   force =     0.00000000   -0.00041163   77.21808470
     atom    7 type  1   force =     0.00041163    0.00000000   77.21808470
     atom    8 type  1   force =    -0.00037215    0.00037215  -77.21853484
     atom    9 type  1   force =     0.00000000    0.00000000  -77.21857942
     atom   10 type  1   force =     0.00000000    0.00017252   77.21897235
     atom   11 type  1   force =    -0.00017252   -0.00000000   77.21897235
     atom   12 type  1   force =     0.00037215   -0.00037215  -77.21853484
     atom   13 type  1   force =     0.00000000    0.00000000  -77.21904027
     atom   14 type  1   force =     0.00000000   -0.00017252   77.21897235
     atom   15 type  1   force =    -0.00041163    0.00000000   77.21808470
     atom   16 type  1   force =     0.00037215    0.00037215  -77.21853484
     The local contribution  to forces
     atom    1 type  1   force =    -0.00000000   -0.00000000   77.28910101
     atom    2 type  1   force =     0.00000000   -0.00041396  -77.28938721
     atom    3 type  1   force =    -0.00005628   -0.00000000  -77.29005262
     atom    4 type  1   force =     0.00055054    0.00055054   77.28966842
     atom    5 type  1   force =    -0.00000000    0.00000000   77.28964003
     atom    6 type  1   force =     0.00000000    0.00041396  -77.28938721
     atom    7 type  1   force =    -0.00041396    0.00000000  -77.28938721
     atom    8 type  1   force =     0.00055054   -0.00055054   77.28966842
     atom    9 type  1   force =     0.00000000   -0.00000000   77.28964003
     atom   10 type  1   force =     0.00000000   -0.00005628  -77.29005262
     atom   11 type  1   force =     0.00005628   -0.00000000  -77.29005262
     atom   12 type  1   force =    -0.00055054    0.00055054   77.28966842
     atom   13 type  1   force =     0.00000000    0.00000000   77.29013993
     atom   14 type  1   force =    -0.00000000    0.00005628  -77.29005262
     atom   15 type  1   force =     0.00041396    0.00000000  -77.28938721
     atom   16 type  1   force =    -0.00055054   -0.00055054   77.28966842
     The core correction contribution to forces
     atom    1 type  1   force =     0.00000000    0.00000000    0.02606576
     atom    2 type  1   force =     0.00000000    0.00000102   -0.02606921
     atom    3 type  1   force =    -0.00000009    0.00000000   -0.02606837
     atom    4 type  1   force =     0.00000056    0.00000056    0.02606558
     atom    5 type  1   force =     0.00000000    0.00000000    0.02606734
     atom    6 type  1   force =    -0.00000000   -0.00000102   -0.02606921
     atom    7 type  1   force =     0.00000102    0.00000000   -0.02606921
     atom    8 type  1   force =     0.00000056   -0.00000056    0.02606558
     atom    9 type  1   force =     0.00000000    0.00000000    0.02606734
     atom   10 type  1   force =    -0.00000000   -0.00000009   -0.02606837
     atom   11 type  1   force =     0.00000009    0.00000000   -0.02606837
     atom   12 type  1   force =    -0.00000056    0.00000056    0.02606558
     atom   13 type  1   force =    -0.00000000   -0.00000000    0.02606823
     atom   14 type  1   force =    -0.00000000    0.00000009   -0.02606837
     atom   15 type  1   force =    -0.00000102   -0.00000000   -0.02606921
     atom   16 type  1   force =    -0.00000056   -0.00000056    0.02606558
     The Hubbard contrib.    to forces
     atom    1 type  1   force =     0.00000000    0.00000000    0.00000000
     atom    2 type  1   force =     0.00000000    0.00000000    0.00000000
     atom    3 type  1   force =     0.00000000    0.00000000    0.00000000
     atom    4 type  1   force =     0.00000000    0.00000000    0.00000000
     atom    5 type  1   force =     0.00000000    0.00000000    0.00000000
     atom    6 type  1   force =     0.00000000    0.00000000    0.00000000
     atom    7 type  1   force =     0.00000000    0.00000000    0.00000000
     atom    8 type  1   force =     0.00000000    0.00000000    0.00000000
     atom    9 type  1   force =     0.00000000    0.00000000    0.00000000
     atom   10 type  1   force =     0.00000000    0.00000000    0.00000000
     atom   11 type  1   force =     0.00000000    0.00000000    0.00000000
     atom   12 type  1   force =     0.00000000    0.00000000    0.00000000
     atom   13 type  1   force =     0.00000000    0.00000000    0.00000000
     atom   14 type  1   force =     0.00000000    0.00000000    0.00000000
     atom   15 type  1   force =     0.00000000    0.00000000    0.00000000
     atom   16 type  1   force =     0.00000000    0.00000000    0.00000000
     The SCF correction term to forces
     atom    1 type  1   force =    -0.00000000   -0.00000000    0.00007481
[...]
    -4.9680  -4.5421  -4.5421  -4.2639  -3.3894  -3.3351  -3.2760  -3.2760
    -2.9541  -2.9541  -2.9120  -2.9120  -2.8353  -2.8353  -2.7408  -2.7407
    -2.5228  -2.5228  -2.5210  -2.2642  -2.2642  -2.2065  -2.2065  -2.1016
    -2.1015  -1.9290  -1.9290  -1.8297  -1.2432  -1.0246  -1.0169  -1.0169
    -0.9755  -0.9755  -0.7837  -0.7706  -0.6063  -0.6063  -0.4483  -0.4483
    -0.4435  -0.3636  -0.3141  -0.3140  -0.1453  -0.1452  -0.1346  -0.1302
    -0.1302  -0.0562   0.2224   0.2224   0.2239   0.2239   0.2783   0.3397
     0.6975   0.6976   0.8927   0.9244   0.9244   0.9495   0.9495   0.9606
     0.9606   1.0285   1.0285   1.0965   1.3350   1.3350   1.3771   1.3771
     1.4816   1.4816   1.5435   1.6038   1.6038   1.6847   1.6847   1.7035
     1.9817   2.1312   2.1312   2.1414   2.1637   2.5390   2.5390   2.8611
     3.9116   3.9116   4.8118   4.8118   5.3893   5.3893   5.9280   6.3711
     6.3711   6.5992   6.5992   6.8546   6.8546   7.0791   7.2936   7.2936
     8.3586   8.4431

     occupation numbers 
     1.0000   1.0000   1.0000   1.0000   1.0000   1.0000   1.0000   1.0000
     1.0000   1.0000   1.0000   1.0000   1.0000   1.0000   1.0000   1.0000
     1.0000   1.0000   1.0000   1.0000   1.0000   1.0000   1.0000   1.0000
     1.0000   1.0000   1.0000   1.0000   1.0000   1.0000   1.0000   1.0000
     1.0000   1.0000   1.0000   1.0000   1.0000   1.0000   1.0000   1.0000
     1.0000   1.0000   1.0000   1.0000   1.0000   1.0000   1.0000   1.0000
     1.0000   1.0000   1.0000   1.0000   1.0000   1.0000   1.0000   1.0000
     1.0000   1.0000   1.0000   1.0000   1.0000   1.0000   1.0000   1.0000
     1.0000   1.0000   1.0000   1.0000   1.0000   1.0000   1.0000   1.0000
     1.0000   1.0000   1.0000   1.0000   1.0000   1.0000   1.0000   1.0000
     1.0000   1.0000   1.0000   1.0000   1.0000   1.0000   1.0000   1.0000
     1.0000   1.0000   1.0000   1.0000   1.0000   1.0000   1.0000   1.0000
     1.0000   1.0000   1.0000   1.0000   1.0000   1.0000   1.0000   1.0000
     1.0000   1.0000   1.0000   1.0000   1.0000   1.0000   1.0000   1.0000
     1.0000   1.0000   1.0000   1.0000   1.0000   1.0000   1.0000   1.0000
     1.0000   1.0000   1.0000   1.0000   1.0000   1.0000   1.0000   1.0000
     0.0524   0.0000   0.0000   0.0000   0.0000   0.0000   0.0000   0.0000
     0.0000   0.0000   0.0000   0.0000   0.0000   0.0000   0.0000   0.0000
     0.0000   0.0000   0.0000   0.0000   0.0000   0.0000   0.0000   0.0000
     0.0000   0.0000

     the Fermi energy is     1.9349 ev

!    total energy              =   -3369.97564201 Ry
     estimated scf accuracy    <          6.1E-09 Ry
     smearing contrib. (-TS)   =      -0.00226899 Ry
     internal energy E=F+TS    =   -3369.97337301 Ry

     The total energy is F=E-TS. E is the sum of the following terms:
     one-electron contribution =   -9358.19075003 Ry
     hartree contribution      =    4724.22323910 Ry
     xc contribution           =    -908.43881177 Ry
     ewald contribution        =    2172.43294969 Ry

     convergence has been achieved in   8 iterations

     negative rho (up, down):  2.834E+00 0.000E+00

     Forces acting on atoms (cartesian axes, Ry/au):

     atom    1 type  1   force =     0.00000000    0.00000000    0.00002935
     atom    2 type  1   force =     0.00000000    0.00000124   -0.00003151
     atom    3 type  1   force =     0.00000572    0.00000000   -0.00003297
     atom    4 type  1   force =    -0.00000259   -0.00000259    0.00003003
     atom    5 type  1   force =     0.00000000    0.00000000    0.00003362
     atom    6 type  1   force =     0.00000000   -0.00000124   -0.00003151
     atom    7 type  1   force =     0.00000124    0.00000000   -0.00003151
     atom    8 type  1   force =    -0.00000259    0.00000259    0.00003003
     atom    9 type  1   force =     0.00000000    0.00000000    0.00003362
     atom   10 type  1   force =     0.00000000    0.00000572   -0.00003297
     atom   11 type  1   force =    -0.00000572    0.00000000   -0.00003297
     atom   12 type  1   force =     0.00000259   -0.00000259    0.00003003
     atom   13 type  1   force =     0.00000000    0.00000000    0.00004123
     atom   14 type  1   force =     0.00000000   -0.00000572   -0.00003297
     atom   15 type  1   force =    -0.00000124    0.00000000   -0.00003151
     atom   16 type  1   force =     0.00000259    0.00000259    0.00003003
     The non-local contrib.  to forces
     atom    1 type  1   force =     0.00000000    0.00000000   -0.08535652
     atom    2 type  1   force =     0.00000000    0.00000230    0.08536592
     atom    3 type  1   force =     0.00000012    0.00000000    0.08536308
     atom    4 type  1   force =    -0.00000164   -0.00000164   -0.08535472
     atom    5 type  1   force =     0.00000000    0.00000000   -0.08535641
     atom    6 type  1   force =     0.00000000   -0.00000230    0.08536592
     atom    7 type  1   force =     0.00000230    0.00000000    0.08536592
     atom    8 type  1   force =    -0.00000164    0.00000164   -0.08535472
     atom    9 type  1   force =     0.00000000    0.00000000   -0.08535641
     atom   10 type  1   force =     0.00000000    0.00000012    0.08536308
     atom   11 type  1   force =    -0.00000012    0.00000000    0.08536308
     atom   12 type  1   force =     0.00000164   -0.00000164   -0.08535472
     atom   13 type  1   force =     0.00000000    0.00000000   -0.08535059
     atom   14 type  1   force =     0.00000000   -0.00000012    0.08536308
     atom   15 type  1   force =    -0.00000230    0.00000000    0.08536592
     atom   16 type  1   force =     0.00000164    0.00000164   -0.08535472
     The ionic contribution  to forces
     atom    1 type  1   force =     0.00000000    0.00000000  -77.66587478
     atom    2 type  1   force =     0.00000000    0.00048875   77.66583319
     atom    3 type  1   force =    -0.00018207    0.00000000   77.66619294
     atom    4 type  1   force =     0.00009575    0.00009575  -77.66551033
     atom    5 type  1   force =     0.00000000    0.00000000  -77.66670476
     atom    6 type  1   force =     0.00000000   -0.00048875   77.66583319
     atom    7 type  1   force =     0.00048875    0.00000000   77.66583319
     atom    8 type  1   force =     0.00009575   -0.00009575  -77.66551033
     atom    9 type  1   force =     0.00000000    0.00000000  -77.66670476
     atom   10 type  1   force =    -0.00000000   -0.00018207   77.66619294
     atom   11 type  1   force =     0.00018207    0.00000000   77.66619294
     atom   12 type  1   force =    -0.00009575    0.00009575  -77.66551033
     atom   13 type  1   force =    -0.00000000    0.00000000  -77.66677889
     atom   14 type  1   force =    -0.00000000    0.00018207   77.66619294
     atom   15 type  1   force =    -0.00048875    0.00000000   77.66583319
     atom   16 type  1   force =    -0.00009575   -0.00009575  -77.66551033
     The local contribution  to forces
     atom    1 type  1   force =    -0.00000000   -0.00000000   77.72330190
     atom    2 type  1   force =     0.00000000   -0.00047363  -77.72330217
     atom    3 type  1   force =     0.00011382   -0.00000000  -77.72360584
     atom    4 type  1   force =    -0.00007327   -0.00007327   77.72285225
     atom    5 type  1   force =    -0.00000000    0.00000000   77.72404086
     atom    6 type  1   force =    -0.00000000    0.00047363  -77.72330217
     atom    7 type  1   force =    -0.00047363    0.00000000  -77.72330217
     atom    8 type  1   force =    -0.00007327    0.00007327   77.72285225
     atom    9 type  1   force =     0.00000000   -0.00000000   77.72404086
     atom   10 type  1   force =     0.00000000    0.00011382  -77.72360584
     atom   11 type  1   force =    -0.00011382   -0.00000000  -77.72360584
     atom   12 type  1   force =     0.00007327   -0.00007327   77.72285225
     atom   13 type  1   force =     0.00000000    0.00000000   77.72408359
     atom   14 type  1   force =     0.00000000   -0.00011382  -77.72360584
     atom   15 type  1   force =     0.00047363   -0.00000000  -77.72330217
     atom   16 type  1   force =     0.00007327    0.00007327   77.72285225
     The core correction contribution to forces
     atom    1 type  1   force =     0.00000000    0.00000000    0.02800988
     atom    2 type  1   force =     0.00000000   -0.00000034   -0.02800633
     atom    3 type  1   force =    -0.00000012    0.00000000   -0.02800695
     atom    4 type  1   force =    -0.00000020   -0.00000020    0.02800979
     atom    5 type  1   force =     0.00000000    0.00000000    0.02800944
     atom    6 type  1   force =    -0.00000000    0.00000034   -0.02800633
     atom    7 type  1   force =    -0.00000034    0.00000000   -0.02800633
     atom    8 type  1   force =    -0.00000020    0.00000020    0.02800979
     atom    9 type  1   force =     0.00000000    0.00000000    0.02800944
     atom   10 type  1   force =     0.00000000   -0.00000012   -0.02800695
     atom   11 type  1   force =     0.00000012    0.00000000   -0.02800695
     atom   12 type  1   force =     0.00000020   -0.00000020    0.02800979
     atom   13 type  1   force =     0.00000000    0.00000000    0.02801005
     atom   14 type  1   force =     0.00000000    0.00000012   -0.02800695
     atom   15 type  1   force =     0.00000034   -0.00000000   -0.02800633
     atom   16 type  1   force =     0.00000020    0.00000020    0.02800979
     The Hubbard contrib.    to forces
     atom    1 type  1   force =     0.00000000    0.00000000    0.00000000
     atom    2 type  1   force =     0.00000000    0.00000000    0.00000000
     atom    3 type  1   force =     0.00000000    0.00000000    0.00000000
     atom    4 type  1   force =     0.00000000    0.00000000    0.00000000
     atom    5 type  1   force =     0.00000000    0.00000000    0.00000000
     atom    6 type  1   force =     0.00000000    0.00000000    0.00000000
     atom    7 type  1   force =     0.00000000    0.00000000    0.00000000
     atom    8 type  1   force =     0.00000000    0.00000000    0.00000000
     atom    9 type  1   force =     0.00000000    0.00000000    0.00000000
     atom   10 type  1   force =     0.00000000    0.00000000    0.00000000
     atom   11 type  1   force =     0.00000000    0.00000000    0.00000000
     atom   12 type  1   force =     0.00000000    0.00000000    0.00000000
     atom   13 type  1   force =     0.00000000    0.00000000    0.00000000
     atom   14 type  1   force =     0.00000000    0.00000000    0.00000000
     atom   15 type  1   force =     0.00000000    0.00000000    0.00000000
     atom   16 type  1   force =     0.00000000    0.00000000    0.00000000
     The SCF correction term to forces
     atom    1 type  1   force =     0.00000000    0.00000000   -0.00004448
     atom    2 type  1   force =    -0.00000000   -0.00001585    0.00008454
     atom    3 type  1   force =     0.00007398    0.00000000    0.00003046
     atom    4 type  1   force =    -0.00002323   -0.00002323    0.00003969
     atom    5 type  1   force =    -0.00000000   -0.00000000    0.00005115
     atom    6 type  1   force =     0.00000000    0.00001585    0.00008454
     atom    7 type  1   force =    -0.00001585    0.00000000    0.00008454
     atom    8 type  1   force =    -0.00002323    0.00002323    0.00003969
     atom    9 type  1   force =    -0.00000000   -0.00000000    0.00005115
     atom   10 type  1   force =     0.00000000    0.00007398    0.00003046
     atom   11 type  1   force =    -0.00007398    0.00000000    0.00003046
     atom   12 type  1   force =     0.00002323   -0.00002323    0.00003969
     atom   13 type  1   force =     0.00000000   -0.00000000    0.00008373
     atom   14 type  1   force =     0.00000000   -0.00007398    0.00003046
     atom   15 type  1   force =     0.00001585    0.00000000    0.00008454
     atom   16 type  1   force =     0.00002323    0.00002323    0.00003969

     Total force =     0.000130     Total SCF correction =     0.000283
     SCF correction compared to forces is large: reduce conv_thr to get better values


     Computing stress (Cartesian axis) and pressure


     negative rho (up, down):  2.834E+00 0.000E+00
          total   stress  (Ry/bohr**3)                   (kbar)     P=      -49.31
  -0.00045606   0.00000000   0.00000000          -67.09        0.00        0.00
   0.00000000  -0.00045606   0.00000000            0.00      -67.09        0.00
   0.00000000   0.00000000  -0.00009357            0.00        0.00      -13.76

     kinetic stress (kbar)  14904.60      0.00      0.00
                                0.00  14904.60      0.00
                                0.00      0.00  15155.23

     local   stress (kbar)-212644.41      0.00      0.00
                                0.00-212644.41      0.00
                                0.00      0.00 222948.05

     nonloc. stress (kbar)   -115.86      0.00      0.00
                                0.00   -115.86      0.00
                                0.00      0.00    -61.48

     hartree stress (kbar) 108882.54     -0.00     -0.00
                               -0.00 108882.54      0.00
                               -0.00      0.00-101289.81

     exc-cor stress (kbar)  11031.42      0.00     -0.00
                                0.00  11031.42     -0.00
                               -0.00     -0.00  11023.50

     corecor stress (kbar) -15198.14      0.00      0.00
                                0.00 -15198.14     -0.00
                                0.00     -0.00 -15204.84

     ewald   stress (kbar)  93072.77     -0.00      0.00
                               -0.00  93072.77      0.00
                                0.00      0.00-132584.41

     hubbard stress (kbar)      0.00      0.00      0.00
                                0.00      0.00      0.00
                                0.00      0.00      0.00

     DFT-D   stress (kbar)      0.00      0.00      0.00
                                0.00      0.00      0.00
                                0.00      0.00      0.00

     XDM     stress (kbar)      0.00      0.00      0.00
                                0.00      0.00      0.00
                                0.00      0.00      0.00

     dft-nl  stress (kbar)      0.00      0.00      0.00
                                0.00      0.00      0.00
                                0.00      0.00      0.00

     TS-vdW  stress (kbar)      0.00      0.00      0.00
                                0.00      0.00      0.00
                                0.00      0.00      0.00


     Energy error            =      6.8E-06
     Gradient error          =      4.1E-05

     bfgs converged in   5 scf cycles and   4 bfgs steps
     (criteria: energy <  1.0E-04 Ry, force <  1.0E-03 Ry/Bohr)

     End of BFGS Geometry Optimization

     Final energy   =   -3369.9756420050 Ry

     File ./surface.bfgs deleted, as requested
Begin final coordinates

ATOMIC_POSITIONS (angstrom)
Pt            0.0000000000        0.0000000000        0.0531060790
Pt            3.9767700000        1.9883806684        1.9352785745
Pt            1.9883899829        0.0000000000        1.9352823662
Pt            1.9883820498        1.9883820498        0.0531138341
Pt            0.0000000000        3.9767700000        0.0530947987
Pt            3.9767700000        5.9651593316        1.9352785745
Pt            1.9883806684        3.9767700000        1.9352785745
Pt            1.9883820498        5.9651579502        0.0531138341
Pt            3.9767700000        0.0000000000        0.0530947987
Pt            7.9535400000        1.9883899829        1.9352823662
Pt            5.9651500171        0.0000000000        1.9352823662
Pt            5.9651579502        1.9883820498        0.0531138341
Pt            3.9767700000        3.9767700000        0.0530852248
Pt            7.9535400000        5.9651500171        1.9352823662
Pt            5.9651593316        3.9767700000        1.9352785745
Pt            5.9651579502        5.9651579502        0.0531138341
End final coordinates



     Writing output data file ./surface.save/

     init_run     :      1.41s CPU      1.52s WALL (       1 calls)
     electrons    :    126.34s CPU    132.16s WALL (       5 calls)
     update_pot   :      1.25s CPU      1.26s WALL (       4 calls)
     forces       :      3.69s CPU      3.90s WALL (       5 calls)
     stress       :     12.55s CPU     12.83s WALL (       5 calls)

     Called by init_run:
     wfcinit      :      0.78s CPU      0.80s WALL (       1 calls)
     wfcinit:atom :      0.01s CPU      0.01s WALL (       6 calls)
     wfcinit:wfcr :      0.72s CPU      0.75s WALL (       6 calls)
     potinit      :      0.12s CPU      0.13s WALL (       1 calls)
     hinit0       :      0.21s CPU      0.22s WALL (       1 calls)

     Called by electrons:
     c_bands      :    102.81s CPU    104.47s WALL (      54 calls)
     sum_band     :     17.46s CPU     19.73s WALL (      54 calls)
     v_of_rho     :      2.04s CPU      2.11s WALL (      58 calls)
     v_h          :      0.15s CPU      0.15s WALL (      58 calls)
     v_xc         :      2.21s CPU      2.29s WALL (      68 calls)
     newd         :      4.03s CPU      5.55s WALL (      58 calls)
     mix_rho      :      0.21s CPU      0.22s WALL (      54 calls)

     Called by c_bands:
     init_us_2    :      1.11s CPU      1.14s WALL (     714 calls)
     cegterg      :    100.11s CPU    101.68s WALL (     324 calls)

     Called by sum_band:
     sum_band:wei :      0.03s CPU      0.03s WALL (      54 calls)
     sum_band:loo :     12.15s CPU     12.42s WALL (      54 calls)
     sum_band:buf :      0.37s CPU      0.39s WALL (     324 calls)
     sum_band:ini :      0.52s CPU      0.54s WALL (     324 calls)
     sum_band:cal :      3.29s CPU      3.32s WALL (     324 calls)
     sum_band:bec :      0.14s CPU      0.14s WALL (     324 calls)
     addusdens    :      4.65s CPU      6.63s WALL (      54 calls)
     addusd:skk   :      0.16s CPU      0.16s WALL (      54 calls)
     addusd:dgemm :      2.38s CPU      4.32s WALL (      54 calls)
     addusd:qvan2 :      1.64s CPU      1.66s WALL (      54 calls)

     Called by *egterg:
     cdiaghg      :     16.64s CPU     16.79s WALL (    1011 calls)
     cegterg:over :      8.13s CPU      8.20s WALL (     717 calls)
     cegterg:upda :      4.96s CPU      5.01s WALL (     717 calls)
     cegterg:last :     10.50s CPU     10.58s WALL (     573 calls)
     cdiaghg:chol :      0.74s CPU      0.75s WALL (    1011 calls)
     cdiaghg:inve :      0.73s CPU      0.74s WALL (    1011 calls)
     cdiaghg:para :      1.89s CPU      1.91s WALL (    2022 calls)
     h_psi        :     50.92s CPU     52.07s WALL (    1047 calls)
     s_psi        :      5.54s CPU      5.59s WALL (    1047 calls)
     g_psi        :      0.13s CPU      0.13s WALL (     717 calls)

     Called by h_psi:
     h_psi:calbec :      8.59s CPU      8.67s WALL (    1047 calls)
     vloc_psi     :     36.36s CPU     37.36s WALL (    1047 calls)
     add_vuspsi   :      5.47s CPU      5.52s WALL (    1047 calls)

     General routines
     calbec       :     13.56s CPU     13.69s WALL (    1521 calls)
     fft          :      1.42s CPU      1.46s WALL (     874 calls)
     ffts         :      0.04s CPU      0.05s WALL (     112 calls)
     fftw         :     41.29s CPU     42.45s WALL (  286558 calls)
     interpolate  :      0.11s CPU      0.12s WALL (      58 calls)

     Parallel routines
     fft_scatt_xy :      2.85s CPU      2.91s WALL (  287544 calls)
     fft_scatt_yz :     16.59s CPU     17.08s WALL (  287544 calls)

     PWSCF        :   2m26.02s CPU   2m33.94s WALL


   This run was terminated on:   0:27:25   6Dec2021            

=------------------------------------------------------------------------------=
   JOB DONE.
=------------------------------------------------------------------------------=
