
     Program PWSCF v.6.7MaX starts on  6Dec2021 at  0:24:47 

     This program is part of the open-source Quantum ESPRESSO suite
     for quantum simulation of materials; please cite
         "P. Giannozzi et al., J. Phys.:Condens. Matter 21 395502 (2009);
         "P. Giannozzi et al., J. Phys.:Condens. Matter 29 465901 (2017);
          URL http://www.quantum-espresso.org", 
     in publications or presentations arising from this work. More details at
     http://www.quantum-espresso.org/quote

     Parallel version (MPI), running on    32 processors

     MPI processes distributed on     1 nodes
     R & G space division:  proc/nbgrp/npool/nimage =      32
     Reading input from pt_surface.100.k.qe.7_7_1.in

     Current dimensions of program PWSCF are:
     Max number of different atomic species (ntypx) = 10
     Max number of k-points (npk) =  40000
     Max angular momentum in pseudopotentials (lmaxx) =  3

     Subspace diagonalization in iterative solution of the eigenvalue problem:
     one sub-group per band group will be used
     scalapack distributed-memory algorithm (size of sub-group:  5*  5 procs)

     Found symmetry operation: I + (  0.2500  0.2500  0.0000)
     This is a supercell, fractional translations are disabled

     Parallelization info
     --------------------
     sticks:   dense  smooth     PW     G-vecs:    dense   smooth      PW
     Min         168      67     18                16362     4131     590
     Max         169      68     19                16371     4140     597
     Sum        5393    2161    593               523697   132301   18937



     bravais-lattice index     =            8
     lattice parameter (alat)  =      15.0300  a.u.
     unit-cell volume          =    5966.5648 (a.u.)^3
     number of atoms/cell      =           16
     number of atomic types    =            1
     number of electrons       =       256.00
     number of Kohn-Sham states=          154
     kinetic-energy cutoff     =      30.0000  Ry
     charge density cutoff     =     300.0000  Ry
     scf convergence threshold =      1.0E-06
     mixing beta               =       0.3000
     number of iterations used =            8  plain     mixing
     energy convergence thresh.=      1.0E-04
     force convergence thresh. =      1.0E-03
     Exchange-correlation=  SLA  PW   PBX  PBC
                           (   1   4   3   4   0   0   0)
     nstep                     =           50


     celldm(1)=  15.030012  celldm(2)=   1.000000  celldm(3)=   1.757302
     celldm(4)=   0.000000  celldm(5)=   0.000000  celldm(6)=   0.000000

     crystal axes: (cart. coord. in units of alat)
               a(1) = (   1.000000   0.000000   0.000000 )  
               a(2) = (   0.000000   1.000000   0.000000 )  
               a(3) = (   0.000000   0.000000   1.757302 )  

     reciprocal axes: (cart. coord. in units 2 pi/alat)
               b(1) = (  1.000000  0.000000  0.000000 )  
               b(2) = (  0.000000  1.000000  0.000000 )  
               b(3) = (  0.000000  0.000000  0.569054 )  


     PseudoPot. # 1 for Pt read from file:
     /expanse/lustre/projects/csd622/tpascal/nano110/qe/pseudo/pt_pbe_v1.4.uspp.F.UPF
     MD5 check sum: f09d6de1a584b5a045c4fc126da2d0c4
     Pseudo is Ultrasoft + core correction, Zval = 16.0
     Generated by new atomic code, or converted to UPF format
     Using radial grid of  985 points,  6 beta functions with: 
                l(1) =   0
                l(2) =   0
                l(3) =   1
                l(4) =   1
                l(5) =   2
                l(6) =   2
     Q(r) pseudized with  8 coefficients,  rinner =    1.300   1.300   1.300
                                                       1.300   1.300

     atomic species   valence    mass     pseudopotential
        Pt            16.00   195.08400     Pt( 1.00)

      8 Sym. Ops. (no inversion) found


                                    s                        frac. trans.

      isym =  1     identity                                     

 cryst.   s( 1) = (     1          0          0      )
                  (     0          1          0      )
                  (     0          0          1      )

 cart.    s( 1) = (  1.0000000  0.0000000  0.0000000 )
                  (  0.0000000  1.0000000  0.0000000 )
                  (  0.0000000  0.0000000  1.0000000 )


      isym =  2     180 deg rotation - cart. axis [0,0,1]        

 cryst.   s( 2) = (    -1          0          0      )
                  (     0         -1          0      )
                  (     0          0          1      )

 cart.    s( 2) = ( -1.0000000  0.0000000  0.0000000 )
                  (  0.0000000 -1.0000000  0.0000000 )
                  (  0.0000000  0.0000000  1.0000000 )


      isym =  3      90 deg rotation - cart. axis [0,0,-1]       

 cryst.   s( 3) = (     0         -1          0      )
                  (     1          0          0      )
                  (     0          0          1      )

 cart.    s( 3) = (  0.0000000  1.0000000  0.0000000 )
                  ( -1.0000000  0.0000000  0.0000000 )
                  (  0.0000000  0.0000000  1.0000000 )


      isym =  4      90 deg rotation - cart. axis [0,0,1]        

 cryst.   s( 4) = (     0          1          0      )
                  (    -1          0          0      )
                  (     0          0          1      )

 cart.    s( 4) = (  0.0000000 -1.0000000  0.0000000 )
                  (  1.0000000  0.0000000  0.0000000 )
                  (  0.0000000  0.0000000  1.0000000 )


      isym =  5     inv. 180 deg rotation - cart. axis [0,1,0]   

 cryst.   s( 5) = (     1          0          0      )
                  (     0         -1          0      )
                  (     0          0          1      )

 cart.    s( 5) = (  1.0000000  0.0000000  0.0000000 )
                  (  0.0000000 -1.0000000  0.0000000 )
                  (  0.0000000  0.0000000  1.0000000 )


      isym =  6     inv. 180 deg rotation - cart. axis [1,0,0]   

 cryst.   s( 6) = (    -1          0          0      )
                  (     0          1          0      )
                  (     0          0          1      )

 cart.    s( 6) = ( -1.0000000  0.0000000  0.0000000 )
                  (  0.0000000  1.0000000  0.0000000 )
                  (  0.0000000  0.0000000  1.0000000 )


      isym =  7     inv. 180 deg rotation - cart. axis [1,1,0]   

 cryst.   s( 7) = (     0         -1          0      )
                  (    -1          0          0      )
                  (     0          0          1      )

 cart.    s( 7) = (  0.0000000 -1.0000000  0.0000000 )
                  ( -1.0000000  0.0000000  0.0000000 )
                  (  0.0000000  0.0000000  1.0000000 )


      isym =  8     inv. 180 deg rotation - cart. axis [1,-1,0]  

 cryst.   s( 8) = (     0          1          0      )
                  (     1          0          0      )
                  (     0          0          1      )

 cart.    s( 8) = (  0.0000000  1.0000000  0.0000000 )
                  (  1.0000000  0.0000000  0.0000000 )
                  (  0.0000000  0.0000000  1.0000000 )


     point group C_4v (4mm) 
     there are  5 classes
     the character table:

       E     2C4   C2    2s_v  2s_d 
A_1    1.00  1.00  1.00  1.00  1.00
A_2    1.00  1.00  1.00 -1.00 -1.00
B_1    1.00 -1.00  1.00  1.00 -1.00
B_2    1.00 -1.00  1.00 -1.00  1.00
E      2.00  0.00 -2.00  0.00  0.00

     the symmetry operations in each class and the name of the first element:

     E        1
          identity                                               
     2C4      3    4
           90 deg rotation - cart. axis [0,0,-1]                 
     C2       2
          180 deg rotation - cart. axis [0,0,1]                  
     2s_v     5    6
          inv. 180 deg rotation - cart. axis [0,1,0]             
     2s_d     7    8
          inv. 180 deg rotation - cart. axis [1,1,0]             

   Cartesian axes

     site n.     atom                  positions (alat units)
         1           Pt  tau(   1) = (   0.0000000   0.0000000   0.0000000  )
         2           Pt  tau(   2) = (   0.5000000   0.2500000   0.2500000  )
         3           Pt  tau(   3) = (   0.2500000   0.0000000   0.2500000  )
         4           Pt  tau(   4) = (   0.2500000   0.2500000   0.0000000  )
         5           Pt  tau(   5) = (   0.0000000   0.5000000   0.0000000  )
         6           Pt  tau(   6) = (   0.5000000   0.7500000   0.2500000  )
         7           Pt  tau(   7) = (   0.2500000   0.5000000   0.2500000  )
         8           Pt  tau(   8) = (   0.2500000   0.7500000   0.0000000  )
         9           Pt  tau(   9) = (   0.5000000   0.0000000   0.0000000  )
        10           Pt  tau(  10) = (   1.0000000   0.2500000   0.2500000  )
        11           Pt  tau(  11) = (   0.7500000   0.0000000   0.2500000  )
        12           Pt  tau(  12) = (   0.7500000   0.2500000   0.0000000  )
        13           Pt  tau(  13) = (   0.5000000   0.5000000   0.0000000  )
        14           Pt  tau(  14) = (   1.0000000   0.7500000   0.2500000  )
        15           Pt  tau(  15) = (   0.7500000   0.5000000   0.2500000  )
        16           Pt  tau(  16) = (   0.7500000   0.7500000   0.0000000  )

   Crystallographic axes

     site n.     atom                  positions (cryst. coord.)
         1           Pt  tau(   1) = (  0.0000000  0.0000000  0.0000000  )
         2           Pt  tau(   2) = (  0.5000000  0.2500000  0.1422636  )
         3           Pt  tau(   3) = (  0.2500000  0.0000000  0.1422636  )
         4           Pt  tau(   4) = (  0.2500000  0.2500000  0.0000000  )
         5           Pt  tau(   5) = (  0.0000000  0.5000000  0.0000000  )
         6           Pt  tau(   6) = (  0.5000000  0.7500000  0.1422636  )
         7           Pt  tau(   7) = (  0.2500000  0.5000000  0.1422636  )
         8           Pt  tau(   8) = (  0.2500000  0.7500000  0.0000000  )
         9           Pt  tau(   9) = (  0.5000000  0.0000000  0.0000000  )
        10           Pt  tau(  10) = (  1.0000000  0.2500000  0.1422636  )
        11           Pt  tau(  11) = (  0.7500000  0.0000000  0.1422636  )
        12           Pt  tau(  12) = (  0.7500000  0.2500000  0.0000000  )
        13           Pt  tau(  13) = (  0.5000000  0.5000000  0.0000000  )
        14           Pt  tau(  14) = (  1.0000000  0.7500000  0.1422636  )
        15           Pt  tau(  15) = (  0.7500000  0.5000000  0.1422636  )
        16           Pt  tau(  16) = (  0.7500000  0.7500000  0.0000000  )

     number of k points=    10  Gaussian smearing, width (Ry)=  0.0030
                       cart. coord. in units 2pi/alat
        k(    1) = (   0.0000000   0.0000000   0.0000000), wk =   0.0408163
        k(    2) = (   0.0000000   0.1428571   0.0000000), wk =   0.1632653
        k(    3) = (   0.0000000   0.2857143   0.0000000), wk =   0.1632653
        k(    4) = (   0.0000000   0.4285714   0.0000000), wk =   0.1632653
        k(    5) = (   0.1428571   0.1428571   0.0000000), wk =   0.1632653
        k(    6) = (   0.1428571   0.2857143   0.0000000), wk =   0.3265306
        k(    7) = (   0.1428571   0.4285714   0.0000000), wk =   0.3265306
        k(    8) = (   0.2857143   0.2857143   0.0000000), wk =   0.1632653
        k(    9) = (   0.2857143   0.4285714   0.0000000), wk =   0.3265306
        k(   10) = (   0.4285714   0.4285714   0.0000000), wk =   0.1632653

                       cryst. coord.
        k(    1) = (   0.0000000   0.0000000   0.0000000), wk =   0.0408163
        k(    2) = (   0.0000000   0.1428571   0.0000000), wk =   0.1632653
        k(    3) = (   0.0000000   0.2857143   0.0000000), wk =   0.1632653
        k(    4) = (   0.0000000   0.4285714   0.0000000), wk =   0.1632653
        k(    5) = (   0.1428571   0.1428571   0.0000000), wk =   0.1632653
        k(    6) = (   0.1428571   0.2857143   0.0000000), wk =   0.3265306
        k(    7) = (   0.1428571   0.4285714   0.0000000), wk =   0.3265306
        k(    8) = (   0.2857143   0.2857143   0.0000000), wk =   0.1632653
        k(    9) = (   0.2857143   0.4285714   0.0000000), wk =   0.3265306
        k(   10) = (   0.4285714   0.4285714   0.0000000), wk =   0.1632653

     Dense  grid:   523697 G-vectors     FFT dimensions: (  90,  90, 150)

     Smooth grid:   132301 G-vectors     FFT dimensions: (  54,  54,  96)

     Dynamical RAM for                 wfc:       1.21 MB

     Dynamical RAM for     wfc (w. buffer):      13.36 MB

     Dynamical RAM for           str. fact:       0.25 MB

     Dynamical RAM for           local pot:       0.00 MB

     Dynamical RAM for          nlocal pot:       2.27 MB

     Dynamical RAM for                qrad:       1.39 MB

     Dynamical RAM for          rho,v,vnew:       1.68 MB

     Dynamical RAM for               rhoin:       0.56 MB

     Dynamical RAM for            rho*nmix:       4.00 MB

     Dynamical RAM for           G-vectors:       0.97 MB

     Dynamical RAM for          h,s,v(r/c):       0.17 MB

     Dynamical RAM for          <psi|beta>:       0.68 MB

     Dynamical RAM for                 psi:       2.43 MB

     Dynamical RAM for                hpsi:       2.43 MB

     Dynamical RAM for                spsi:       2.43 MB

     Dynamical RAM for      wfcinit/wfcrot:       3.87 MB

     Dynamical RAM for           addusdens:      50.46 MB

     Dynamical RAM for          addusforce:      58.14 MB

     Dynamical RAM for         addusstress:      50.21 MB

     Estimated static dynamical RAM per process >      26.52 MB

     Estimated max dynamical RAM per process >      84.66 MB

     Estimated total dynamical RAM >       2.65 GB

     Initial potential from superposition of free atoms

     starting charge  247.99982, renormalised to  256.00000

     negative rho (up, down):  3.024E+00 0.000E+00
     Starting wfcs are  192 randomized atomic wfcs

     total cpu time spent up to now is        2.2 secs

     Self-consistent Calculation

     iteration #  1     ecut=    30.00 Ry     beta= 0.30
     Davidson diagonalization with overlap
     ethr =  1.00E-02,  avg # of iterations =  7.5

     negative rho (up, down):  2.871E+00 0.000E+00

     total cpu time spent up to now is        7.9 secs

     total energy              =   -3363.40899379 Ry
     estimated scf accuracy    <      30.50938351 Ry

     iteration #  2     ecut=    30.00 Ry     beta= 0.30
     Davidson diagonalization with overlap
     ethr =  1.00E-02,  avg # of iterations =  2.6

     negative rho (up, down):  2.857E+00 0.000E+00

     total cpu time spent up to now is       12.1 secs

     total energy              =   -3369.36053770 Ry
     estimated scf accuracy    <       5.13718188 Ry

     iteration #  3     ecut=    30.00 Ry     beta= 0.30
     Davidson diagonalization with overlap
     ethr =  2.01E-03,  avg # of iterations =  2.1

     negative rho (up, down):  2.831E+00 0.000E+00

     total cpu time spent up to now is       16.0 secs

     total energy              =   -3369.91361374 Ry
     estimated scf accuracy    <       0.26730700 Ry

     iteration #  4     ecut=    30.00 Ry     beta= 0.30
     Davidson diagonalization with overlap
     ethr =  1.04E-04,  avg # of iterations =  7.0

     negative rho (up, down):  2.809E+00 0.000E+00

     total cpu time spent up to now is       21.8 secs

     total energy              =   -3369.93955869 Ry
     estimated scf accuracy    <       0.06338882 Ry

     iteration #  5     ecut=    30.00 Ry     beta= 0.30
     Davidson diagonalization with overlap
     ethr =  2.48E-05,  avg # of iterations =  3.0

     negative rho (up, down):  2.807E+00 0.000E+00

     total cpu time spent up to now is       26.2 secs

     total energy              =   -3369.94856929 Ry
     estimated scf accuracy    <       0.21645835 Ry

     iteration #  6     ecut=    30.00 Ry     beta= 0.30
     Davidson diagonalization with overlap
     ethr =  2.48E-05,  avg # of iterations =  1.1

     negative rho (up, down):  2.806E+00 0.000E+00

     total cpu time spent up to now is       29.3 secs

     total energy              =   -3369.95166826 Ry
     estimated scf accuracy    <       0.03728492 Ry

     iteration #  7     ecut=    30.00 Ry     beta= 0.30
     Davidson diagonalization with overlap
     ethr =  1.46E-05,  avg # of iterations =  2.0

     negative rho (up, down):  2.805E+00 0.000E+00

     total cpu time spent up to now is       32.8 secs

     total energy              =   -3369.94875938 Ry
     estimated scf accuracy    <       0.01432263 Ry

     iteration #  8     ecut=    30.00 Ry     beta= 0.30
     Davidson diagonalization with overlap
     ethr =  5.59E-06,  avg # of iterations =  3.2

     negative rho (up, down):  2.804E+00 0.000E+00

     total cpu time spent up to now is       37.1 secs

     total energy              =   -3369.95150680 Ry
     estimated scf accuracy    <       0.00207885 Ry

     iteration #  9     ecut=    30.00 Ry     beta= 0.30
     Davidson diagonalization with overlap
     c_bands:  1 eigenvalues not converged
     ethr =  8.12E-07,  avg # of iterations =  3.7

     negative rho (up, down):  2.802E+00 0.000E+00

     total cpu time spent up to now is       40.7 secs

     total energy              =   -3369.95135380 Ry
     estimated scf accuracy    <       0.00175385 Ry

     iteration # 10     ecut=    30.00 Ry     beta= 0.30
     Davidson diagonalization with overlap
     ethr =  6.85E-07,  avg # of iterations =  4.4

     negative rho (up, down):  2.802E+00 0.000E+00

     total cpu time spent up to now is       44.7 secs

     total energy              =   -3369.95154144 Ry
     estimated scf accuracy    <       0.00033049 Ry

     iteration # 11     ecut=    30.00 Ry     beta= 0.30
     Davidson diagonalization with overlap
     ethr =  1.29E-07,  avg # of iterations =  2.0

     negative rho (up, down):  2.802E+00 0.000E+00

     total cpu time spent up to now is       48.2 secs

     total energy              =   -3369.95155398 Ry
     estimated scf accuracy    <       0.00030554 Ry

     iteration # 12     ecut=    30.00 Ry     beta= 0.30
     Davidson diagonalization with overlap
     ethr =  1.19E-07,  avg # of iterations =  3.0

     negative rho (up, down):  2.802E+00 0.000E+00

     total cpu time spent up to now is       51.9 secs

     total energy              =   -3369.95158460 Ry
     estimated scf accuracy    <       0.00002415 Ry

     iteration # 13     ecut=    30.00 Ry     beta= 0.30
     Davidson diagonalization with overlap
     ethr =  9.43E-09,  avg # of iterations =  2.0

     negative rho (up, down):  2.802E+00 0.000E+00

     total cpu time spent up to now is       55.4 secs

     total energy              =   -3369.95158974 Ry
     estimated scf accuracy    <       0.00001010 Ry

     iteration # 14     ecut=    30.00 Ry     beta= 0.30
     Davidson diagonalization with overlap
     ethr =  3.94E-09,  avg # of iterations =  1.0

     negative rho (up, down):  2.802E+00 0.000E+00

     total cpu time spent up to now is       58.5 secs

     End of self-consistent calculation

          k = 0.0000 0.0000 0.0000 ( 16575 PWs)   bands (ev):

   -50.3140 -50.3140 -50.2983 -50.2983 -50.2983 -50.2983 -50.2100 -50.2100
   -50.2100 -50.2100 -50.1998 -50.1998 -50.1959 -50.1959 -50.1958 -50.1958
   -50.1683 -50.1683 -50.1682 -50.1682 -50.1148 -50.1148 -50.1147 -50.1147
   -50.1050 -50.1050 -50.0974 -50.0502 -50.0502 -50.0502 -50.0502 -50.0289
   -50.0289 -50.0090 -50.0090 -50.0090 -50.0090 -49.9626 -49.9626 -49.9608
   -49.9607 -49.9607 -49.9606 -49.9198 -49.9197 -49.9197 -49.9197 -49.9043
    -5.5486  -3.5128  -3.2546  -3.2546  -3.2546  -3.2546  -3.2271  -3.2270
    -3.2270  -3.2270  -3.1076  -2.9811  -2.9811  -2.4701  -2.4701  -1.9773
    -1.9773  -1.9773  -1.9773  -1.7698  -1.7698  -1.7697  -1.7697  -1.7622
    -1.2113  -1.2113  -1.2113  -1.2113  -1.1050  -1.1050  -1.1050  -1.1050
    -0.5916  -0.5916  -0.5916  -0.5916  -0.4648  -0.4648  -0.4648  -0.4648
    -0.2747  -0.2747  -0.2747  -0.2746  -0.2680  -0.2679  -0.2679  -0.2679
    -0.0728  -0.0728   0.2050   0.4449   0.4449   0.4449   0.4449   0.5466
     0.5466   0.5466   0.5467   0.6857   0.6857   0.6857   0.6857   0.7737
     0.7737   0.9264   1.3415   1.3969   1.3970   1.3970   1.3970   1.4427
     1.4427   1.6889   1.6889   1.6890   1.6890   1.7308   1.7308   1.7308
     1.7308   1.9563   1.9563   2.1092   2.8974   2.8974   3.8036   3.8036
     3.8036   3.8036   3.9205   3.9205   3.9205   3.9205   4.0107   6.2223
     6.2223   6.2223   6.2223   6.5085   6.5085   7.4723   7.8250   8.0058
     8.0059   8.0059

     occupation numbers 
     1.0000   1.0000   1.0000   1.0000   1.0000   1.0000   1.0000   1.0000
     1.0000   1.0000   1.0000   1.0000   1.0000   1.0000   1.0000   1.0000
     1.0000   1.0000   1.0000   1.0000   1.0000   1.0000   1.0000   1.0000
     1.0000   1.0000   1.0000   1.0000   1.0000   1.0000   1.0000   1.0000
     1.0000   1.0000   1.0000   1.0000   1.0000   1.0000   1.0000   1.0000
     1.0000   1.0000   1.0000   1.0000   1.0000   1.0000   1.0000   1.0000
     1.0000   1.0000   1.0000   1.0000   1.0000   1.0000   1.0000   1.0000
     1.0000   1.0000   1.0000   1.0000   1.0000   1.0000   1.0000   1.0000
     1.0000   1.0000   1.0000   1.0000   1.0000   1.0000   1.0000   1.0000
     1.0000   1.0000   1.0000   1.0000   1.0000   1.0000   1.0000   1.0000
     1.0000   1.0000   1.0000   1.0000   1.0000   1.0000   1.0000   1.0000
     1.0000   1.0000   1.0000   1.0000   1.0000   1.0000   1.0000   1.0000
     1.0000   1.0000   1.0000   1.0000   1.0000   1.0000   1.0000   1.0000
     1.0000   1.0000   1.0000   1.0000   1.0000   1.0000   1.0000   1.0000
     1.0000   1.0000   1.0000   1.0000   1.0000   1.0000   1.0000   1.0000
     1.0000   1.0000   1.0000   1.0000   1.0000   1.0000   1.0000   1.0000
     1.0000   0.0127   0.0127   0.0000   0.0000   0.0000   0.0000   0.0000
     0.0000   0.0000   0.0000   0.0000   0.0000   0.0000   0.0000   0.0000
     0.0000   0.0000   0.0000   0.0000   0.0000   0.0000   0.0000   0.0000
     0.0000   0.0000

          k = 0.0000 0.1429 0.0000 ( 16542 PWs)   bands (ev):

   -50.3114 -50.3111 -50.2984 -50.2984 -50.2921 -50.2921 -50.2332 -50.2230
   -50.2230 -50.2221 -50.2044 -50.2043 -50.1994 -50.1977 -50.1868 -50.1779
   -50.1696 -50.1573 -50.1547 -50.1547 -50.1337 -50.1076 -50.1072 -50.1071
   -50.1071 -50.0983 -50.0957 -50.0572 -50.0572 -50.0486 -50.0486 -50.0310
   -50.0299 -50.0184 -50.0079 -50.0078 -49.9991 -49.9707 -49.9707 -49.9638
   -49.9613 -49.9512 -49.9511 -49.9270 -49.9207 -49.9206 -49.9136 -49.9042
    -5.4868  -3.6640  -3.4568  -3.3002  -3.3002  -3.2300  -3.2300  -3.1612
    -3.1612  -3.0728  -2.9516  -2.9389  -2.9147  -2.4551  -2.4515  -2.1047
    -2.0895  -2.0895  -1.9864  -1.9229  -1.8729  -1.7345  -1.7345  -1.7284
    -1.4846  -1.3003  -1.3003  -1.0987  -1.0986  -1.0943  -1.0943  -0.7445
    -0.7006  -0.6274  -0.5883  -0.5732  -0.5732  -0.3861  -0.3861  -0.3525
    -0.3525  -0.3449  -0.3448  -0.3267  -0.3267  -0.2785  -0.1496  -0.1334
    -0.0994   0.0936   0.2086   0.2891   0.5298   0.5299   0.5683   0.5683
     0.5977   0.5977   0.6647   0.7280   0.7354   0.7355   0.7704   0.7718
     0.8445   1.0422   1.2643   1.3338   1.3639   1.3639   1.4266   1.4353
     1.5502   1.6122   1.6122   1.6936   1.7244   1.7506   1.7507   1.7557
     1.7557   1.8468   1.9476   2.0721   2.6862   2.8116   3.2183   3.2183
     3.3242   3.9431   3.9431   4.2025   4.3686   4.3686   4.5888   5.8443
     5.8443   5.9915   6.7617   6.8444   6.8444   7.2715   7.5278   7.8689
     8.0366   8.0366

     occupation numbers 
     1.0000   1.0000   1.0000   1.0000   1.0000   1.0000   1.0000   1.0000
     1.0000   1.0000   1.0000   1.0000   1.0000   1.0000   1.0000   1.0000
     1.0000   1.0000   1.0000   1.0000   1.0000   1.0000   1.0000   1.0000
     1.0000   1.0000   1.0000   1.0000   1.0000   1.0000   1.0000   1.0000
     1.0000   1.0000   1.0000   1.0000   1.0000   1.0000   1.0000   1.0000
     1.0000   1.0000   1.0000   1.0000   1.0000   1.0000   1.0000   1.0000
     1.0000   1.0000   1.0000   1.0000   1.0000   1.0000   1.0000   1.0000
     1.0000   1.0000   1.0000   1.0000   1.0000   1.0000   1.0000   1.0000
     1.0000   1.0000   1.0000   1.0000   1.0000   1.0000   1.0000   1.0000
     1.0000   1.0000   1.0000   1.0000   1.0000   1.0000   1.0000   1.0000
     1.0000   1.0000   1.0000   1.0000   1.0000   1.0000   1.0000   1.0000
     1.0000   1.0000   1.0000   1.0000   1.0000   1.0000   1.0000   1.0000
     1.0000   1.0000   1.0000   1.0000   1.0000   1.0000   1.0000   1.0000
     1.0000   1.0000   1.0000   1.0000   1.0000   1.0000   1.0000   1.0000
     1.0000   1.0000   1.0000   1.0000   1.0000   1.0000   1.0000   1.0000
     1.0000   1.0000   1.0000   1.0000   1.0000   1.0000   1.0000   1.0000
     1.0000   0.9404   0.0265   0.0000   0.0000   0.0000   0.0000   0.0000
     0.0000   0.0000   0.0000   0.0000   0.0000   0.0000   0.0000   0.0000
     0.0000   0.0000   0.0000   0.0000   0.0000   0.0000   0.0000   0.0000
     0.0000   0.0000

          k = 0.0000 0.2857 0.0000 ( 16546 PWs)   bands (ev):

   -50.3037 -50.3024 -50.2927 -50.2927 -50.2806 -50.2806 -50.2552 -50.2474
   -50.2446 -50.2445 -50.2232 -50.2232 -50.1980 -50.1914 -50.1857 -50.1647
   -50.1516 -50.1453 -50.1452 -50.1310 -50.1310 -50.1155 -50.1130 -50.1020
   -50.0912 -50.0911 -50.0776 -50.0694 -50.0694 -50.0524 -50.0524 -50.0373
   -50.0324 -50.0263 -50.0042 -50.0042 -49.9894 -49.9808 -49.9807 -49.9673
   -49.9572 -49.9424 -49.9424 -49.9351 -49.9237 -49.9236 -49.9091 -49.9042
    -5.3040  -4.1503  -3.3075  -3.3075  -3.2909  -3.2412  -3.2412  -3.0166
    -3.0166  -2.9696  -2.8727  -2.8161  -2.7564  -2.4035  -2.3961  -2.3335
    -2.3259  -2.3259  -2.2790  -2.1072  -2.0792  -1.8247  -1.6576  -1.6576
    -1.6284  -1.3771  -1.3771  -1.0470  -1.0470  -0.9622  -0.9622  -0.9559
    -0.7216  -0.6074  -0.6074  -0.5457  -0.5336  -0.5336  -0.4884  -0.4884
    -0.4615  -0.4615  -0.3110  -0.2837  -0.1758  -0.1200  -0.1200   0.0249
     0.2160   0.2591   0.3538   0.4071   0.5612   0.5612   0.6095   0.7142
     0.7143   0.7144   0.7144   0.7606   0.7986   0.8623   0.8624   1.0146
     1.0894   1.1151   1.3043   1.3163   1.3164   1.3310   1.3635   1.4130
     1.4250   1.4250   1.6541   1.6784   1.6785   1.7766   1.7785   1.8944
     1.8945   1.9220   1.9579   1.9786   2.1802   2.5827   2.7293   2.7293
     2.7864   4.0151   4.0151   4.5261   4.5262   4.6647   4.9368   5.3487
     6.1265   6.1265   6.5692   7.3936   7.5074   7.5074   7.6943   8.0001
     8.1114   8.1114

     occupation numbers 
     1.0000   1.0000   1.0000   1.0000   1.0000   1.0000   1.0000   1.0000
     1.0000   1.0000   1.0000   1.0000   1.0000   1.0000   1.0000   1.0000
     1.0000   1.0000   1.0000   1.0000   1.0000   1.0000   1.0000   1.0000
     1.0000   1.0000   1.0000   1.0000   1.0000   1.0000   1.0000   1.0000
     1.0000   1.0000   1.0000   1.0000   1.0000   1.0000   1.0000   1.0000
     1.0000   1.0000   1.0000   1.0000   1.0000   1.0000   1.0000   1.0000
     1.0000   1.0000   1.0000   1.0000   1.0000   1.0000   1.0000   1.0000
     1.0000   1.0000   1.0000   1.0000   1.0000   1.0000   1.0000   1.0000
     1.0000   1.0000   1.0000   1.0000   1.0000   1.0000   1.0000   1.0000
     1.0000   1.0000   1.0000   1.0000   1.0000   1.0000   1.0000   1.0000
     1.0000   1.0000   1.0000   1.0000   1.0000   1.0000   1.0000   1.0000
     1.0000   1.0000   1.0000   1.0000   1.0000   1.0000   1.0000   1.0000
     1.0000   1.0000   1.0000   1.0000   1.0000   1.0000   1.0000   1.0000
     1.0000   1.0000   1.0000   1.0000   1.0000   1.0000   1.0000   1.0000
     1.0000   1.0000   1.0000   1.0000   1.0000   1.0000   1.0000   1.0000
     1.0000   1.0000   1.0000   1.0000   1.0000   1.0000   1.0000   0.4636
     0.4633   0.1477   0.0110   0.0013   0.0000   0.0000   0.0000   0.0000
     0.0000   0.0000   0.0000   0.0000   0.0000   0.0000   0.0000   0.0000
     0.0000   0.0000   0.0000   0.0000   0.0000   0.0000   0.0000   0.0000
     0.0000   0.0000

          k = 0.0000 0.4286 0.0000 ( 16534 PWs)   bands (ev):

   -50.2914 -50.2884 -50.2812 -50.2812 -50.2749 -50.2698 -50.2647 -50.2647
   -50.2643 -50.2643 -50.2445 -50.2445 -50.1956 -50.1915 -50.1812 -50.1678
   -50.1447 -50.1333 -50.1280 -50.1249 -50.1221 -50.1104 -50.1074 -50.1074
   -50.0865 -50.0865 -50.0746 -50.0746 -50.0613 -50.0613 -50.0612 -50.0476
   -50.0337 -50.0317 -49.9982 -49.9982 -49.9902 -49.9901 -49.9804 -49.9730
   -49.9510 -49.9434 -49.9347 -49.9347 -49.9284 -49.9283 -49.9062 -49.9047
    -5.0079  -4.6141  -3.2896  -3.2896  -3.2629  -3.2629  -3.0242  -2.8220
    -2.8220  -2.8029  -2.7787  -2.7241  -2.6746  -2.6219  -2.5852  -2.5852
    -2.5833  -2.3749  -2.3085  -2.2955  -2.1975  -2.1026  -1.5586  -1.5586
    -1.4641  -1.4603  -1.4603  -1.2378  -0.9396  -0.9396  -0.8264  -0.8264
    -0.7276  -0.7276  -0.6313  -0.6313  -0.6228  -0.6228  -0.6199  -0.5948
    -0.5948  -0.4781  -0.4263  -0.2917   0.0994   0.1915   0.1915   0.2123
     0.2563   0.3167   0.4399   0.4399   0.4461   0.6184   0.6391   0.7216
     0.8259   0.8260   0.8510   0.8511   0.9350   1.0229   1.0286   1.0286
     1.2181   1.2181   1.2285   1.2886   1.3475   1.3507   1.3507   1.3695
     1.3886   1.4916   1.4992   1.5152   1.5152   1.5622   1.8323   1.8823
     1.9776   1.9804   2.0929   2.0929   2.2767   2.3116   2.3593   2.3593
     2.7608   3.8013   4.1469   4.1469   4.3402   4.3402   5.2511   5.8942
     6.2202   7.0024   7.0024   7.2043   7.9709   8.0016   8.0016   8.1035
     8.1581   8.1584

     occupation numbers 
     1.0000   1.0000   1.0000   1.0000   1.0000   1.0000   1.0000   1.0000
     1.0000   1.0000   1.0000   1.0000   1.0000   1.0000   1.0000   1.0000
     1.0000   1.0000   1.0000   1.0000   1.0000   1.0000   1.0000   1.0000
     1.0000   1.0000   1.0000   1.0000   1.0000   1.0000   1.0000   1.0000
     1.0000   1.0000   1.0000   1.0000   1.0000   1.0000   1.0000   1.0000
     1.0000   1.0000   1.0000   1.0000   1.0000   1.0000   1.0000   1.0000
     1.0000   1.0000   1.0000   1.0000   1.0000   1.0000   1.0000   1.0000
     1.0000   1.0000   1.0000   1.0000   1.0000   1.0000   1.0000   1.0000
     1.0000   1.0000   1.0000   1.0000   1.0000   1.0000   1.0000   1.0000
     1.0000   1.0000   1.0000   1.0000   1.0000   1.0000   1.0000   1.0000
     1.0000   1.0000   1.0000   1.0000   1.0000   1.0000   1.0000   1.0000
     1.0000   1.0000   1.0000   1.0000   1.0000   1.0000   1.0000   1.0000
     1.0000   1.0000   1.0000   1.0000   1.0000   1.0000   1.0000   1.0000
     1.0000   1.0000   1.0000   1.0000   1.0000   1.0000   1.0000   1.0000
     1.0000   1.0000   1.0000   1.0000   1.0000   1.0000   1.0000   1.0000
     1.0000   1.0000   1.0000   1.0000   1.0000   1.0000   0.9804   0.6284
     0.0015   0.0011   0.0000   0.0000   0.0000   0.0000   0.0000   0.0000
     0.0000   0.0000   0.0000   0.0000   0.0000   0.0000   0.0000   0.0000
     0.0000   0.0000   0.0000   0.0000   0.0000   0.0000   0.0000   0.0000
     0.0000   0.0000

          k = 0.1429 0.1429 0.0000 ( 16565 PWs)   bands (ev):

   -50.3089 -50.3089 -50.2970 -50.2969 -50.2941 -50.2817 -50.2429 -50.2428
   -50.2291 -50.2291 -50.2027 -50.2026 -50.1970 -50.1970 -50.1791 -50.1790
   -50.1667 -50.1667 -50.1418 -50.1418 -50.1270 -50.1269 -50.1160 -50.1032
   -50.0998 -50.0880 -50.0880 -50.0600 -50.0599 -50.0595 -50.0426 -50.0346
   -50.0290 -50.0173 -50.0173 -49.9978 -49.9978 -49.9812 -49.9625 -49.9624
   -49.9607 -49.9606 -49.9423 -49.9281 -49.9281 -49.9146 -49.9145 -49.9043
    -5.4266  -3.6568  -3.6568  -3.4183  -3.4111  -3.1449  -3.1449  -3.1321
    -3.0291  -2.9178  -2.9178  -2.9100  -2.9100  -2.4372  -2.4372  -2.2680
    -2.2680  -2.0630  -2.0630  -1.8362  -1.8362  -1.8080  -1.8079  -1.6950
    -1.4677  -1.4677  -1.3988  -1.1737  -1.1737  -1.0082  -0.7330  -0.7330
    -0.6758  -0.6758  -0.5867  -0.5867  -0.5645  -0.5645  -0.5506  -0.5506
    -0.3769  -0.3769  -0.2663  -0.2547  -0.1996  -0.0631  -0.0299  -0.0298
    -0.0186  -0.0186   0.2113   0.3245   0.3245   0.3884   0.4332   0.7284
     0.7285   0.7362   0.7362   0.7629   0.7629   0.8548   0.8548   0.8826
     0.8826   1.1373   1.2095   1.2881   1.2881   1.4123   1.4123   1.4935
     1.4935   1.5654   1.5655   1.5918   1.6721   1.7777   1.7777   1.8356
     1.8356   1.8773   2.0115   2.0363   2.5445   2.6035   2.6035   3.3360
     3.3360   4.0252   4.0252   4.2456   4.3674   4.6277   4.6277   6.0484
     6.2390   6.2390   6.3434   6.3434   7.3110   7.3110   7.3287   7.5831
     7.9127   8.8007

     occupation numbers 
     1.0000   1.0000   1.0000   1.0000   1.0000   1.0000   1.0000   1.0000
     1.0000   1.0000   1.0000   1.0000   1.0000   1.0000   1.0000   1.0000
     1.0000   1.0000   1.0000   1.0000   1.0000   1.0000   1.0000   1.0000
     1.0000   1.0000   1.0000   1.0000   1.0000   1.0000   1.0000   1.0000
     1.0000   1.0000   1.0000   1.0000   1.0000   1.0000   1.0000   1.0000
     1.0000   1.0000   1.0000   1.0000   1.0000   1.0000   1.0000   1.0000
     1.0000   1.0000   1.0000   1.0000   1.0000   1.0000   1.0000   1.0000
     1.0000   1.0000   1.0000   1.0000   1.0000   1.0000   1.0000   1.0000
     1.0000   1.0000   1.0000   1.0000   1.0000   1.0000   1.0000   1.0000
     1.0000   1.0000   1.0000   1.0000   1.0000   1.0000   1.0000   1.0000
     1.0000   1.0000   1.0000   1.0000   1.0000   1.0000   1.0000   1.0000
     1.0000   1.0000   1.0000   1.0000   1.0000   1.0000   1.0000   1.0000
     1.0000   1.0000   1.0000   1.0000   1.0000   1.0000   1.0000   1.0000
     1.0000   1.0000   1.0000   1.0000   1.0000   1.0000   1.0000   1.0000
     1.0000   1.0000   1.0000   1.0000   1.0000   1.0000   1.0000   1.0000
     1.0000   1.0000   1.0000   1.0000   1.0000   1.0000   1.0000   0.9743
     0.9743   0.6921   0.0000   0.0000   0.0000   0.0000   0.0000   0.0000
     0.0000   0.0000   0.0000   0.0000   0.0000   0.0000   0.0000   0.0000
     0.0000   0.0000   0.0000   0.0000   0.0000   0.0000   0.0000   0.0000
     0.0000   0.0000

          k = 0.1429 0.2857 0.0000 ( 16547 PWs)   bands (ev):

   -50.3023 -50.3013 -50.2958 -50.2899 -50.2842 -50.2661 -50.2614 -50.2603
   -50.2522 -50.2447 -50.2267 -50.1998 -50.1948 -50.1898 -50.1823 -50.1769
   -50.1547 -50.1462 -50.1442 -50.1290 -50.1287 -50.1188 -50.1116 -50.1052
   -50.1038 -50.0761 -50.0725 -50.0706 -50.0675 -50.0672 -50.0419 -50.0398
   -50.0304 -50.0255 -50.0142 -49.9939 -49.9916 -49.9880 -49.9703 -49.9660
   -49.9584 -49.9513 -49.9362 -49.9343 -49.9312 -49.9172 -49.9099 -49.9044
    -5.2484  -4.1282  -3.6364  -3.5033  -3.2798  -3.0954  -3.0512  -2.9521
    -2.9332  -2.8974  -2.8331  -2.7885  -2.7501  -2.5387  -2.5076  -2.3884
    -2.3851  -2.2493  -2.1564  -2.0584  -2.0356  -1.8063  -1.7366  -1.6868
    -1.5950  -1.4728  -1.4065  -1.2661  -1.0418  -0.9358  -0.8978  -0.7713
    -0.7652  -0.7346  -0.7085  -0.5944  -0.5692  -0.5338  -0.4533  -0.4366
    -0.3997  -0.2913  -0.2788  -0.2724  -0.2531  -0.0936  -0.0394   0.2100
     0.2158   0.2423   0.2726   0.2828   0.3240   0.4205   0.4272   0.6148
     0.7217   0.8292   0.8917   0.9205   0.9367   0.9886   0.9890   0.9983
     1.0866   1.1181   1.2184   1.2568   1.3209   1.3522   1.3685   1.3709
     1.4280   1.4617   1.4828   1.4892   1.6649   1.8143   1.8405   1.8808
     1.9448   2.0186   2.1165   2.1290   2.1444   2.2557   2.3867   2.7922
     3.3771   3.5322   3.9036   4.7475   4.7852   4.8750   5.1965   5.4097
     5.9760   6.6193   6.7585   6.8256   7.1523   7.4212   7.6456   7.7490
     8.0435   8.5432

     occupation numbers 
     1.0000   1.0000   1.0000   1.0000   1.0000   1.0000   1.0000   1.0000
     1.0000   1.0000   1.0000   1.0000   1.0000   1.0000   1.0000   1.0000
     1.0000   1.0000   1.0000   1.0000   1.0000   1.0000   1.0000   1.0000
     1.0000   1.0000   1.0000   1.0000   1.0000   1.0000   1.0000   1.0000
     1.0000   1.0000   1.0000   1.0000   1.0000   1.0000   1.0000   1.0000
     1.0000   1.0000   1.0000   1.0000   1.0000   1.0000   1.0000   1.0000
     1.0000   1.0000   1.0000   1.0000   1.0000   1.0000   1.0000   1.0000
     1.0000   1.0000   1.0000   1.0000   1.0000   1.0000   1.0000   1.0000
     1.0000   1.0000   1.0000   1.0000   1.0000   1.0000   1.0000   1.0000
     1.0000   1.0000   1.0000   1.0000   1.0000   1.0000   1.0000   1.0000
     1.0000   1.0000   1.0000   1.0000   1.0000   1.0000   1.0000   1.0000
     1.0000   1.0000   1.0000   1.0000   1.0000   1.0000   1.0000   1.0000
     1.0000   1.0000   1.0000   1.0000   1.0000   1.0000   1.0000   1.0000
     1.0000   1.0000   1.0000   1.0000   1.0000   1.0000   1.0000   1.0000
     1.0000   1.0000   1.0000   1.0000   1.0000   1.0000   1.0000   1.0000
     1.0000   1.0000   1.0000   1.0000   1.0000   0.9964   0.9623   0.6482
     0.0331   0.0000   0.0000   0.0000   0.0000   0.0000   0.0000   0.0000
     0.0000   0.0000   0.0000   0.0000   0.0000   0.0000   0.0000   0.0000
     0.0000   0.0000   0.0000   0.0000   0.0000   0.0000   0.0000   0.0000
     0.0000   0.0000

          k = 0.1429 0.4286 0.0000 ( 16540 PWs)   bands (ev):

   -50.2919 -50.2890 -50.2889 -50.2780 -50.2779 -50.2766 -50.2725 -50.2690
   -50.2623 -50.2495 -50.2462 -50.2234 -50.1909 -50.1850 -50.1786 -50.1637
   -50.1627 -50.1445 -50.1331 -50.1197 -50.1176 -50.1161 -50.1088 -50.0976
   -50.0965 -50.0946 -50.0800 -50.0793 -50.0577 -50.0563 -50.0471 -50.0462
   -50.0325 -50.0310 -50.0087 -50.0011 -49.9877 -49.9796 -49.9790 -49.9716
   -49.9522 -49.9445 -49.9431 -49.9364 -49.9273 -49.9215 -49.9068 -49.9051
    -4.9602  -4.5777  -3.6054  -3.5630  -3.0767  -3.0305  -2.9712  -2.9165
    -2.8219  -2.7460  -2.7318  -2.7278  -2.7042  -2.6777  -2.5982  -2.4855
    -2.3829  -2.3636  -2.3025  -2.2809  -2.1928  -2.0858  -1.6001  -1.5867
    -1.5345  -1.4304  -1.4136  -1.2845  -1.2065  -1.1089  -0.7826  -0.7456
    -0.7380  -0.7219  -0.7083  -0.6725  -0.5982  -0.5678  -0.5235  -0.5192
    -0.4347  -0.4071  -0.3141  -0.1859  -0.1447   0.0803   0.0812   0.2044
     0.2528   0.3373   0.4548   0.4823   0.5081   0.5275   0.5423   0.6425
     0.6790   0.7123   0.7253   1.0475   1.0572   1.0755   1.0992   1.1440
     1.1829   1.1987   1.2256   1.2436   1.2741   1.2926   1.3240   1.3404
     1.3709   1.3831   1.4038   1.4728   1.5328   1.6205   1.8566   1.9121
     1.9590   1.9756   1.9773   2.0383   2.1083   2.3124   2.5578   3.0317
     3.0634   3.4658   3.6319   4.0839   4.9459   5.1652   5.3383   5.9591
     6.2989   6.3648   7.1798   7.4580   7.5726   7.6882   7.6935   7.8406
     8.0141   8.0245

     occupation numbers 
     1.0000   1.0000   1.0000   1.0000   1.0000   1.0000   1.0000   1.0000
     1.0000   1.0000   1.0000   1.0000   1.0000   1.0000   1.0000   1.0000
     1.0000   1.0000   1.0000   1.0000   1.0000   1.0000   1.0000   1.0000
     1.0000   1.0000   1.0000   1.0000   1.0000   1.0000   1.0000   1.0000
     1.0000   1.0000   1.0000   1.0000   1.0000   1.0000   1.0000   1.0000
     1.0000   1.0000   1.0000   1.0000   1.0000   1.0000   1.0000   1.0000
     1.0000   1.0000   1.0000   1.0000   1.0000   1.0000   1.0000   1.0000
     1.0000   1.0000   1.0000   1.0000   1.0000   1.0000   1.0000   1.0000
     1.0000   1.0000   1.0000   1.0000   1.0000   1.0000   1.0000   1.0000
     1.0000   1.0000   1.0000   1.0000   1.0000   1.0000   1.0000   1.0000
     1.0000   1.0000   1.0000   1.0000   1.0000   1.0000   1.0000   1.0000
     1.0000   1.0000   1.0000   1.0000   1.0000   1.0000   1.0000   1.0000
     1.0000   1.0000   1.0000   1.0000   1.0000   1.0000   1.0000   1.0000
     1.0000   1.0000   1.0000   1.0000   1.0000   1.0000   1.0000   1.0000
     1.0000   1.0000   1.0000   1.0000   1.0000   1.0000   1.0000   1.0000
     1.0000   1.0000   1.0000   1.0000   1.0000   1.0000   0.8887   0.2411
     0.0100   0.0018   0.0015   0.0000   0.0000   0.0000   0.0000   0.0000
     0.0000   0.0000   0.0000   0.0000   0.0000   0.0000   0.0000   0.0000
     0.0000   0.0000   0.0000   0.0000   0.0000   0.0000   0.0000   0.0000
     0.0000   0.0000

          k = 0.2857 0.2857 0.0000 ( 16562 PWs)   bands (ev):

   -50.2980 -50.2980 -50.2937 -50.2936 -50.2736 -50.2736 -50.2707 -50.2635
   -50.2635 -50.2470 -50.2071 -50.2070 -50.1855 -50.1855 -50.1755 -50.1755
   -50.1570 -50.1569 -50.1462 -50.1327 -50.1327 -50.1151 -50.1083 -50.1083
   -50.0980 -50.0868 -50.0868 -50.0699 -50.0570 -50.0570 -50.0419 -50.0369
   -50.0295 -50.0231 -50.0231 -50.0022 -49.9840 -49.9840 -49.9619 -49.9619
   -49.9606 -49.9606 -49.9396 -49.9395 -49.9271 -49.9122 -49.9122 -49.9051
    -5.0842  -4.0640  -4.0639  -3.6795  -3.2279  -3.0449  -2.8736  -2.8736
    -2.7418  -2.7417  -2.7344  -2.7344  -2.7198  -2.7198  -2.7042  -2.3423
    -2.3423  -2.2764  -2.2764  -1.9234  -1.9234  -1.8338  -1.8338  -1.7412
    -1.7412  -1.5404  -1.4949  -1.2544  -1.2544  -0.8752  -0.8752  -0.8215
    -0.7953  -0.7953  -0.7850  -0.7850  -0.6111  -0.3050  -0.3050  -0.2758
    -0.2758  -0.2518  -0.2518  -0.1721  -0.0925  -0.0431  -0.0220  -0.0070
    -0.0070   0.1404   0.2086   0.3129   0.3129   0.4205   0.4205   0.6135
     0.6135   0.9159   1.0058   1.0058   1.0563   1.0563   1.1072   1.1072
     1.1299   1.1299   1.1758   1.1999   1.1999   1.2005   1.2005   1.3250
     1.3251   1.5015   1.5558   1.5619   1.5766   1.5766   1.8519   1.9478
     1.9478   2.0021   2.0041   2.0041   2.0890   2.7595   2.7595   2.8175
     2.8175   3.3947   4.4878   4.4878   5.1149   5.5897   5.5898   5.7893
     5.7894   6.7141   6.7141   6.7647   6.7647   7.5230   7.5393   7.9128
     8.0425   8.1731

     occupation numbers 
     1.0000   1.0000   1.0000   1.0000   1.0000   1.0000   1.0000   1.0000
     1.0000   1.0000   1.0000   1.0000   1.0000   1.0000   1.0000   1.0000
     1.0000   1.0000   1.0000   1.0000   1.0000   1.0000   1.0000   1.0000
     1.0000   1.0000   1.0000   1.0000   1.0000   1.0000   1.0000   1.0000
     1.0000   1.0000   1.0000   1.0000   1.0000   1.0000   1.0000   1.0000
     1.0000   1.0000   1.0000   1.0000   1.0000   1.0000   1.0000   1.0000
     1.0000   1.0000   1.0000   1.0000   1.0000   1.0000   1.0000   1.0000
     1.0000   1.0000   1.0000   1.0000   1.0000   1.0000   1.0000   1.0000
     1.0000   1.0000   1.0000   1.0000   1.0000   1.0000   1.0000   1.0000
     1.0000   1.0000   1.0000   1.0000   1.0000   1.0000   1.0000   1.0000
     1.0000   1.0000   1.0000   1.0000   1.0000   1.0000   1.0000   1.0000
     1.0000   1.0000   1.0000   1.0000   1.0000   1.0000   1.0000   1.0000
     1.0000   1.0000   1.0000   1.0000   1.0000   1.0000   1.0000   1.0000
     1.0000   1.0000   1.0000   1.0000   1.0000   1.0000   1.0000   1.0000
     1.0000   1.0000   1.0000   1.0000   1.0000   1.0000   1.0000   1.0000
     1.0000   1.0000   1.0000   1.0000   1.0000   1.0000   0.9167   0.0263
     0.0263   0.0001   0.0001   0.0001   0.0000   0.0000   0.0000   0.0000
     0.0000   0.0000   0.0000   0.0000   0.0000   0.0000   0.0000   0.0000
     0.0000   0.0000   0.0000   0.0000   0.0000   0.0000   0.0000   0.0000
     0.0000   0.0000

          k = 0.2857 0.4286 0.0000 ( 16562 PWs)   bands (ev):

   -50.2923 -50.2918 -50.2902 -50.2868 -50.2847 -50.2843 -50.2788 -50.2760
   -50.2527 -50.2310 -50.2245 -50.2000 -50.1865 -50.1782 -50.1710 -50.1686
   -50.1658 -50.1530 -50.1521 -50.1332 -50.1313 -50.1164 -50.1092 -50.1008
   -50.1006 -50.0971 -50.0908 -50.0779 -50.0461 -50.0446 -50.0422 -50.0375
   -50.0307 -50.0295 -50.0188 -50.0118 -49.9777 -49.9751 -49.9697 -49.9675
   -49.9556 -49.9520 -49.9479 -49.9449 -49.9210 -49.9160 -49.9087 -49.9064
    -4.8200  -4.4714  -3.9636  -3.8337  -3.1173  -2.9907  -2.9481  -2.8868
    -2.8016  -2.7549  -2.6581  -2.6575  -2.6534  -2.5523  -2.4486  -2.4271
    -2.3826  -2.2616  -2.2323  -2.1256  -2.1103  -2.0262  -1.7458  -1.6778
    -1.6140  -1.5956  -1.5150  -1.4288  -1.3311  -1.1146  -0.8360  -0.7956
    -0.7687  -0.7575  -0.6828  -0.6698  -0.6213  -0.4910  -0.4224  -0.3337
    -0.2643  -0.1840  -0.1707  -0.1587  -0.1293  -0.0742   0.0303   0.1276
     0.1711   0.2364   0.2978   0.3315   0.3833   0.4336   0.5344   0.6052
     0.6183   0.6478   0.8461   0.8915   1.0387   1.0511   1.0549   1.0662
     1.0706   1.0724   1.0862   1.2340   1.2377   1.2905   1.3200   1.3916
     1.3923   1.4345   1.4384   1.4917   1.6370   1.6747   1.7210   1.8612
     1.9295   2.0232   2.0263   2.0405   2.0830   2.3295   2.8900   3.0625
     3.3298   3.6447   3.9193   4.6841   5.5625   5.5879   5.8727   6.1487
     6.2904   6.4785   6.5087   6.7907   6.9900   7.2638   7.3824   7.7326
     7.7725   8.1845

     occupation numbers 
     1.0000   1.0000   1.0000   1.0000   1.0000   1.0000   1.0000   1.0000
     1.0000   1.0000   1.0000   1.0000   1.0000   1.0000   1.0000   1.0000
     1.0000   1.0000   1.0000   1.0000   1.0000   1.0000   1.0000   1.0000
     1.0000   1.0000   1.0000   1.0000   1.0000   1.0000   1.0000   1.0000
     1.0000   1.0000   1.0000   1.0000   1.0000   1.0000   1.0000   1.0000
     1.0000   1.0000   1.0000   1.0000   1.0000   1.0000   1.0000   1.0000
     1.0000   1.0000   1.0000   1.0000   1.0000   1.0000   1.0000   1.0000
     1.0000   1.0000   1.0000   1.0000   1.0000   1.0000   1.0000   1.0000
     1.0000   1.0000   1.0000   1.0000   1.0000   1.0000   1.0000   1.0000
     1.0000   1.0000   1.0000   1.0000   1.0000   1.0000   1.0000   1.0000
     1.0000   1.0000   1.0000   1.0000   1.0000   1.0000   1.0000   1.0000
     1.0000   1.0000   1.0000   1.0000   1.0000   1.0000   1.0000   1.0000
     1.0000   1.0000   1.0000   1.0000   1.0000   1.0000   1.0000   1.0000
     1.0000   1.0000   1.0000   1.0000   1.0000   1.0000   1.0000   1.0000
     1.0000   1.0000   1.0000   1.0000   1.0000   1.0000   1.0000   1.0000
     1.0000   1.0000   1.0000   1.0000   1.0000   1.0000   1.0000   0.8554
     0.0956   0.0000   0.0000   0.0000   0.0000   0.0000   0.0000   0.0000
     0.0000   0.0000   0.0000   0.0000   0.0000   0.0000   0.0000   0.0000
     0.0000   0.0000   0.0000   0.0000   0.0000   0.0000   0.0000   0.0000
     0.0000   0.0000

          k = 0.4286 0.4286 0.0000 ( 16550 PWs)   bands (ev):

   -50.2908 -50.2907 -50.2904 -50.2903 -50.2892 -50.2892 -50.2855 -50.2855
   -50.2327 -50.2103 -50.2103 -50.2005 -50.1882 -50.1757 -50.1757 -50.1601
   -50.1601 -50.1521 -50.1470 -50.1470 -50.1388 -50.1388 -50.1236 -50.1236
   -50.0902 -50.0882 -50.0882 -50.0805 -50.0367 -50.0363 -50.0363 -50.0330
   -50.0306 -50.0276 -50.0276 -50.0217 -49.9688 -49.9688 -49.9613 -49.9613
   -49.9608 -49.9608 -49.9534 -49.9534 -49.9158 -49.9117 -49.9117 -49.9085
    -4.5960  -4.3033  -4.3033  -4.0857  -3.0966  -3.0277  -3.0160  -3.0160
    -2.6175  -2.6175  -2.6138  -2.6138  -2.5502  -2.5502  -2.4721  -2.4721
    -2.1309  -2.1309  -2.1292  -1.9581  -1.9581  -1.9046  -1.9046  -1.8509
    -1.8509  -1.7185  -1.7185  -1.6785  -1.1717  -0.9745  -0.9745  -0.8629
    -0.8520  -0.8520  -0.8322  -0.6993  -0.4174  -0.4174  -0.1475  -0.1475
    -0.0860  -0.0860  -0.0829  -0.0610  -0.0605  -0.0605  -0.0388  -0.0319
    -0.0319   0.0982   0.2398   0.2398   0.2453   0.3786   0.3786   0.5731
     0.7090   0.7090   0.8445   0.8445   0.8837   0.8837   0.8964   0.9356
     0.9356   0.9505   0.9505   1.0250   1.4608   1.4608   1.4695   1.4695
     1.5033   1.5033   1.5113   1.6043   1.6043   1.6439   1.6686   1.6686
     2.0636   2.0869   2.0886   2.0886   2.1175   2.4157   2.4157   2.6503
     4.2963   4.2963   4.9589   4.9589   5.3785   5.3785   5.9695   6.0888
     6.0888   6.4472   6.4472   6.8301   6.9373   6.9373   7.3275   7.3275
     8.1148   8.4487

     occupation numbers 
     1.0000   1.0000   1.0000   1.0000   1.0000   1.0000   1.0000   1.0000
     1.0000   1.0000   1.0000   1.0000   1.0000   1.0000   1.0000   1.0000
     1.0000   1.0000   1.0000   1.0000   1.0000   1.0000   1.0000   1.0000
     1.0000   1.0000   1.0000   1.0000   1.0000   1.0000   1.0000   1.0000
     1.0000   1.0000   1.0000   1.0000   1.0000   1.0000   1.0000   1.0000
     1.0000   1.0000   1.0000   1.0000   1.0000   1.0000   1.0000   1.0000
     1.0000   1.0000   1.0000   1.0000   1.0000   1.0000   1.0000   1.0000
     1.0000   1.0000   1.0000   1.0000   1.0000   1.0000   1.0000   1.0000
     1.0000   1.0000   1.0000   1.0000   1.0000   1.0000   1.0000   1.0000
     1.0000   1.0000   1.0000   1.0000   1.0000   1.0000   1.0000   1.0000
     1.0000   1.0000   1.0000   1.0000   1.0000   1.0000   1.0000   1.0000
     1.0000   1.0000   1.0000   1.0000   1.0000   1.0000   1.0000   1.0000
     1.0000   1.0000   1.0000   1.0000   1.0000   1.0000   1.0000   1.0000
     1.0000   1.0000   1.0000   1.0000   1.0000   1.0000   1.0000   1.0000
     1.0000   1.0000   1.0000   1.0000   1.0000   1.0000   1.0000   1.0000
     1.0000   1.0000   1.0000   1.0000   1.0000   1.0000   1.0000   1.0000
     0.0000   0.0000   0.0000   0.0000   0.0000   0.0000   0.0000   0.0000
     0.0000   0.0000   0.0000   0.0000   0.0000   0.0000   0.0000   0.0000
     0.0000   0.0000   0.0000   0.0000   0.0000   0.0000   0.0000   0.0000
     0.0000   0.0000

     the Fermi energy is     1.8918 ev

!    total energy              =   -3369.95159056 Ry
     estimated scf accuracy    <       0.00000046 Ry
     smearing contrib. (-TS)   =      -0.00186492 Ry
     internal energy E=F+TS    =   -3369.94972564 Ry

     The total energy is F=E-TS. E is the sum of the following terms:
     one-electron contribution =   -9112.49041585 Ry
     hartree contribution      =    4602.36453197 Ry
     xc contribution           =    -908.03953730 Ry
     ewald contribution        =    2048.21569554 Ry

     convergence has been achieved in  14 iterations

     negative rho (up, down):  2.802E+00 0.000E+00

     Forces acting on atoms (cartesian axes, Ry/au):

     atom    1 type  1   force =     0.00000000    0.00000000    0.02522122
     atom    2 type  1   force =     0.00000000    0.00002230   -0.02529060
     atom    3 type  1   force =     0.00000263    0.00000000   -0.02533413
     atom    4 type  1   force =    -0.00000832   -0.00000832    0.02533045
     atom    5 type  1   force =     0.00000000    0.00000000    0.02528378
     atom    6 type  1   force =     0.00000000   -0.00002230   -0.02529060
     atom    7 type  1   force =     0.00002230    0.00000000   -0.02529060
     atom    8 type  1   force =    -0.00000832    0.00000832    0.02533045
     atom    9 type  1   force =     0.00000000    0.00000000    0.02528378
     atom   10 type  1   force =     0.00000000    0.00000263   -0.02533413
     atom   11 type  1   force =    -0.00000263    0.00000000   -0.02533413
     atom   12 type  1   force =     0.00000832   -0.00000832    0.02533045
     atom   13 type  1   force =     0.00000000    0.00000000    0.02538832
     atom   14 type  1   force =     0.00000000   -0.00000263   -0.02533413
     atom   15 type  1   force =    -0.00002230    0.00000000   -0.02529060
     atom   16 type  1   force =     0.00000832    0.00000832    0.02533045
     The non-local contrib.  to forces
     atom    1 type  1   force =     0.00000000    0.00000000   -0.07570608
     atom    2 type  1   force =     0.00000000    0.00000918    0.07569697
     atom    3 type  1   force =     0.00000458    0.00000000    0.07567816
     atom    4 type  1   force =    -0.00000304   -0.00000304   -0.07568164
     atom    5 type  1   force =     0.00000000    0.00000000   -0.07568530
     atom    6 type  1   force =     0.00000000   -0.00000918    0.07569697
     atom    7 type  1   force =     0.00000918    0.00000000    0.07569697
     atom    8 type  1   force =    -0.00000304    0.00000304   -0.07568164
     atom    9 type  1   force =     0.00000000    0.00000000   -0.07568530
     atom   10 type  1   force =    -0.00000000    0.00000458    0.07567816
     atom   11 type  1   force =    -0.00000458    0.00000000    0.07567816
     atom   12 type  1   force =     0.00000304   -0.00000304   -0.07568164
     atom   13 type  1   force =     0.00000000    0.00000000   -0.07566921
     atom   14 type  1   force =     0.00000000   -0.00000458    0.07567816
     atom   15 type  1   force =    -0.00000918    0.00000000    0.07569697
     atom   16 type  1   force =     0.00000304    0.00000304   -0.07568164
     The ionic contribution  to forces
     atom    1 type  1   force =     0.00000000    0.00000000  -77.02202201
     atom    2 type  1   force =     0.00000000   -0.00000000   77.02202201
     atom    3 type  1   force =    -0.00000000    0.00000000   77.02202201
     atom    4 type  1   force =    -0.00000000   -0.00000000  -77.02202201
     atom    5 type  1   force =     0.00000000    0.00000000  -77.02202201
     atom    6 type  1   force =    -0.00000000   -0.00000000   77.02202201
     atom    7 type  1   force =    -0.00000000    0.00000000   77.02202201
     atom    8 type  1   force =    -0.00000000    0.00000000  -77.02202201
     atom    9 type  1   force =     0.00000000    0.00000000  -77.02202201
     atom   10 type  1   force =     0.00000000   -0.00000000   77.02202201
     atom   11 type  1   force =     0.00000000    0.00000000   77.02202201
     atom   12 type  1   force =     0.00000000   -0.00000000  -77.02202201
     atom   13 type  1   force =     0.00000000    0.00000000  -77.02202201
     atom   14 type  1   force =    -0.00000000   -0.00000000   77.02202201
     atom   15 type  1   force =    -0.00000000   -0.00000000   77.02202201
     atom   16 type  1   force =     0.00000000    0.00000000  -77.02202201
     The local contribution  to forces
     atom    1 type  1   force =    -0.00000000   -0.00000000   77.09663020
     atom    2 type  1   force =     0.00000000    0.00003248  -77.09667536
     atom    3 type  1   force =     0.00003954   -0.00000000  -77.09668110
     atom    4 type  1   force =     0.00005773    0.00005773   77.09666564
     atom    5 type  1   force =    -0.00000000    0.00000000   77.09659621
     atom    6 type  1   force =     0.00000000   -0.00003248  -77.09667536
     atom    7 type  1   force =     0.00003248    0.00000000  -77.09667536
     atom    8 type  1   force =     0.00005773   -0.00005773   77.09666564
     atom    9 type  1   force =     0.00000000   -0.00000000   77.09659621
     atom   10 type  1   force =     0.00000000    0.00003954  -77.09668110
     atom   11 type  1   force =    -0.00003954   -0.00000000  -77.09668110
     atom   12 type  1   force =    -0.00005773    0.00005773   77.09666564
     atom   13 type  1   force =     0.00000000    0.00000000   77.09630915
     atom   14 type  1   force =     0.00000000   -0.00003954  -77.09668110
     atom   15 type  1   force =    -0.00003248    0.00000000  -77.09667536
     atom   16 type  1   force =    -0.00005773   -0.00005773   77.09666564
     The core correction contribution to forces
     atom    1 type  1   force =     0.00000000    0.00000000    0.02517945
     atom    2 type  1   force =     0.00000000    0.00000339   -0.02518410
     atom    3 type  1   force =     0.00000157    0.00000000   -0.02518647
     atom    4 type  1   force =     0.00000122    0.00000122    0.02518449
     atom    5 type  1   force =     0.00000000   -0.00000000    0.02518163
     atom    6 type  1   force =     0.00000000   -0.00000339   -0.02518410
     atom    7 type  1   force =     0.00000339   -0.00000000   -0.02518410
     atom    8 type  1   force =     0.00000122   -0.00000122    0.02518449
     atom    9 type  1   force =    -0.00000000    0.00000000    0.02518163
     atom   10 type  1   force =    -0.00000000    0.00000157   -0.02518647
     atom   11 type  1   force =    -0.00000157    0.00000000   -0.02518647
     atom   12 type  1   force =    -0.00000122    0.00000122    0.02518449
     atom   13 type  1   force =     0.00000000   -0.00000000    0.02517879
     atom   14 type  1   force =     0.00000000   -0.00000157   -0.02518647
     atom   15 type  1   force =    -0.00000339    0.00000000   -0.02518410
     atom   16 type  1   force =    -0.00000122   -0.00000122    0.02518449
     The Hubbard contrib.    to forces
     atom    1 type  1   force =     0.00000000    0.00000000    0.00000000
     atom    2 type  1   force =     0.00000000    0.00000000    0.00000000
     atom    3 type  1   force =     0.00000000    0.00000000    0.00000000
     atom    4 type  1   force =     0.00000000    0.00000000    0.00000000
     atom    5 type  1   force =     0.00000000    0.00000000    0.00000000
     atom    6 type  1   force =     0.00000000    0.00000000    0.00000000
     atom    7 type  1   force =     0.00000000    0.00000000    0.00000000
     atom    8 type  1   force =     0.00000000    0.00000000    0.00000000
     atom    9 type  1   force =     0.00000000    0.00000000    0.00000000
     atom   10 type  1   force =     0.00000000    0.00000000    0.00000000
     atom   11 type  1   force =     0.00000000    0.00000000    0.00000000
     atom   12 type  1   force =     0.00000000    0.00000000    0.00000000
     atom   13 type  1   force =     0.00000000    0.00000000    0.00000000
     atom   14 type  1   force =     0.00000000    0.00000000    0.00000000
     atom   15 type  1   force =     0.00000000    0.00000000    0.00000000
     atom   16 type  1   force =     0.00000000    0.00000000    0.00000000
     The SCF correction term to forces
     atom    1 type  1   force =    -0.00000000    0.00000000    0.00114742
     atom    2 type  1   force =     0.00000000   -0.00002275   -0.00114235
     atom    3 type  1   force =    -0.00004307    0.00000000   -0.00115896
     atom    4 type  1   force =    -0.00006424   -0.00006424    0.00119174
     atom    5 type  1   force =     0.00000000    0.00000000    0.00122102
     atom    6 type  1   force =     0.00000000    0.00002275   -0.00114235
     atom    7 type  1   force =    -0.00002275   -0.00000000   -0.00114235
     atom    8 type  1   force =    -0.00006424    0.00006424    0.00119174
     atom    9 type  1   force =     0.00000000    0.00000000    0.00122102
     atom   10 type  1   force =     0.00000000   -0.00004307   -0.00115896
     atom   11 type  1   force =     0.00004307    0.00000000   -0.00115896
     atom   12 type  1   force =     0.00006424   -0.00006424    0.00119174
     atom   13 type  1   force =    -0.00000000    0.00000000    0.00159938
     atom   14 type  1   force =     0.00000000    0.00004307   -0.00115896
     atom   15 type  1   force =     0.00002275   -0.00000000   -0.00114235
     atom   16 type  1   force =     0.00006424    0.00006424    0.00119174

     Total force =     0.101250     Total SCF correction =     0.004814


     Computing stress (Cartesian axis) and pressure


     negative rho (up, down):  2.802E+00 0.000E+00
          total   stress  (Ry/bohr**3)                   (kbar)     P=      -66.41
  -0.00056758   0.00000000   0.00000000          -83.49        0.00        0.00
   0.00000000  -0.00056758   0.00000000            0.00      -83.49        0.00
   0.00000000   0.00000000  -0.00021927            0.00        0.00      -32.26

     kinetic stress (kbar)  14896.57      0.00      0.00
                                0.00  14896.57      0.00
                                0.00      0.00  15149.30

     local   stress (kbar)-206002.79      0.00     -0.00
                                0.00-206002.79     -0.00
                               -0.00     -0.00 215723.88

     nonloc. stress (kbar)   -123.03      0.00      0.00
                                0.00   -123.03      0.00
                                0.00      0.00    -76.58

     hartree stress (kbar) 105691.24      0.00     -0.00
                                0.00 105691.24     -0.00
                               -0.00     -0.00 -97911.63

     exc-cor stress (kbar)  11033.81      0.00      0.00
                                0.00  11033.81      0.00
                                0.00      0.00  11025.75

     corecor stress (kbar) -15197.66     -0.00      0.00
                               -0.00 -15197.66      0.00
                                0.00      0.00 -15204.79

     ewald   stress (kbar)  89618.37      0.00      0.00
                                0.00  89618.37      0.00
                                0.00      0.00-128738.18

     hubbard stress (kbar)      0.00      0.00      0.00
                                0.00      0.00      0.00
                                0.00      0.00      0.00

     DFT-D   stress (kbar)      0.00      0.00      0.00
                                0.00      0.00      0.00
                                0.00      0.00      0.00

     XDM     stress (kbar)      0.00      0.00      0.00
                                0.00      0.00      0.00
                                0.00      0.00      0.00

     dft-nl  stress (kbar)      0.00      0.00      0.00
                                0.00      0.00      0.00
                                0.00      0.00      0.00

     TS-vdW  stress (kbar)      0.00      0.00      0.00
                                0.00      0.00      0.00
                                0.00      0.00      0.00



     BFGS Geometry Optimization
     Energy error            =      0.0E+00
     Gradient error          =      2.5E-02

     number of scf cycles    =   1
     number of bfgs steps    =   0

     energy   new            =   -3369.9515905607 Ry

     new trust radius        =       0.0253883215 bohr
     new conv_thr            =       0.0000010000 Ry


ATOMIC_POSITIONS (angstrom)
Pt            0.0000000000        0.0000000000        0.0133464932
Pt            3.9767700000        1.9883968008        1.9750017930
Pt            1.9883863921        0.0000000000        1.9749787574
Pt            1.9883805960        1.9883805960        0.0134042955
Pt            0.0000000000        3.9767700000        0.0133796011
Pt            3.9767700000        5.9651431992        1.9750017930
Pt            1.9883968008        3.9767700000        1.9750017930
Pt            1.9883805960        5.9651594040        0.0134042955
Pt            3.9767700000        0.0000000000        0.0133796011
Pt            7.9535400000        1.9883863921        1.9749787574
Pt            5.9651536079        0.0000000000        1.9749787574
Pt            5.9651594040        1.9883805960        0.0134042955
Pt            3.9767700000        3.9767700000        0.0134349211
Pt            7.9535400000        5.9651536079        1.9749787574
Pt            5.9651431992        3.9767700000        1.9750017930
Pt            5.9651594040        5.9651594040        0.0134042955



     Writing output data file ./surface.save/
     NEW-OLD atomic charge density approx. for the potential

     negative rho (up, down):  2.811E+00 0.000E+00

     total cpu time spent up to now is       63.2 secs

     Self-consistent Calculation

     iteration #  1     ecut=    30.00 Ry     beta= 0.30
     Davidson diagonalization with overlap
     ethr =  1.00E-06,  avg # of iterations =  6.1

     negative rho (up, down):  2.811E+00 0.000E+00

     total cpu time spent up to now is       72.2 secs

     total energy              =   -3369.96060996 Ry
     estimated scf accuracy    <       0.00056784 Ry

     iteration #  2     ecut=    30.00 Ry     beta= 0.30
     Davidson diagonalization with overlap
     ethr =  2.22E-07,  avg # of iterations =  1.9

     negative rho (up, down):  2.811E+00 0.000E+00

     total cpu time spent up to now is       75.7 secs

     total energy              =   -3369.96059484 Ry
     estimated scf accuracy    <       0.00023820 Ry

     iteration #  3     ecut=    30.00 Ry     beta= 0.30
     Davidson diagonalization with overlap
     ethr =  9.30E-08,  avg # of iterations =  1.3

     negative rho (up, down):  2.811E+00 0.000E+00

     total cpu time spent up to now is       78.8 secs

     total energy              =   -3369.96055564 Ry
     estimated scf accuracy    <       0.00044666 Ry

     iteration #  4     ecut=    30.00 Ry     beta= 0.30
     Davidson diagonalization with overlap
     ethr =  9.30E-08,  avg # of iterations =  1.4

     negative rho (up, down):  2.811E+00 0.000E+00

     total cpu time spent up to now is       82.0 secs

     total energy              =   -3369.96057790 Ry
     estimated scf accuracy    <       0.00044059 Ry

     iteration #  5     ecut=    30.00 Ry     beta= 0.30
     Davidson diagonalization with overlap
     ethr =  9.30E-08,  avg # of iterations =  1.0

     negative rho (up, down):  2.811E+00 0.000E+00

     total cpu time spent up to now is       85.1 secs

     total energy              =   -3369.96059971 Ry
     estimated scf accuracy    <       0.00010370 Ry

     iteration #  6     ecut=    30.00 Ry     beta= 0.30
     Davidson diagonalization with overlap
     ethr =  4.05E-08,  avg # of iterations =  1.0

     negative rho (up, down):  2.811E+00 0.000E+00

     total cpu time spent up to now is       88.1 secs

     total energy              =   -3369.96060615 Ry
     estimated scf accuracy    <       0.00002702 Ry

     iteration #  7     ecut=    30.00 Ry     beta= 0.30
     Davidson diagonalization with overlap
     ethr =  1.06E-08,  avg # of iterations =  1.0

     negative rho (up, down):  2.811E+00 0.000E+00

     total cpu time spent up to now is       91.1 secs

     total energy              =   -3369.96060802 Ry
     estimated scf accuracy    <       0.00000442 Ry

     iteration #  8     ecut=    30.00 Ry     beta= 0.30
     Davidson diagonalization with overlap
     ethr =  1.73E-09,  avg # of iterations =  1.0

     negative rho (up, down):  2.811E+00 0.000E+00

     total cpu time spent up to now is       94.1 secs

     total energy              =   -3369.96060816 Ry
     estimated scf accuracy    <       0.00000485 Ry

     iteration #  9     ecut=    30.00 Ry     beta= 0.30
     Davidson diagonalization with overlap
     ethr =  1.73E-09,  avg # of iterations =  1.0

     negative rho (up, down):  2.811E+00 0.000E+00

     total cpu time spent up to now is       97.1 secs

     End of self-consistent calculation

          k = 0.0000 0.0000 0.0000 ( 16575 PWs)   bands (ev):

   -50.3419 -50.3419 -50.3241 -50.3241 -50.3240 -50.3240 -50.2371 -50.2371
   -50.2370 -50.2370 -50.2225 -50.2224 -50.2224 -50.2224 -50.2170 -50.2170
   -50.1919 -50.1919 -50.1918 -50.1918 -50.1327 -50.1327 -50.1326 -50.1326
   -50.1311 -50.1311 -50.1255 -50.0726 -50.0726 -50.0725 -50.0725 -50.0475
   -50.0475 -50.0311 -50.0310 -50.0310 -50.0308 -49.9849 -49.9848 -49.9799
   -49.9798 -49.9798 -49.9797 -49.9372 -49.9371 -49.9371 -49.9369 -49.9207
    -5.6115  -3.5544  -3.3260  -3.3260  -3.3259  -3.3259  -3.2893  -3.2893
    -3.2893  -3.2892  -3.1762  -3.0430  -3.0430  -2.5480  -2.5480  -2.0659
    -2.0659  -2.0659  -2.0659  -1.8269  -1.8269  -1.8268  -1.8268  -1.7505
    -1.2070  -1.2069  -1.2069  -1.2069  -1.1736  -1.1735  -1.1735  -1.1735
    -0.6476  -0.6476  -0.6475  -0.6475  -0.4993  -0.4992  -0.4992  -0.4992
    -0.3500  -0.3499  -0.3499  -0.3499  -0.2808  -0.2807  -0.2807  -0.2806
    -0.1413  -0.1413   0.2466   0.4506   0.4506   0.4506   0.4508   0.5141
     0.5142   0.5142   0.5142   0.6946   0.6946   0.6946   0.6947   0.7859
     0.7859   0.9289   1.2826   1.4092   1.4092   1.4092   1.4093   1.4557
     1.4557   1.7211   1.7212   1.7212   1.7212   1.7480   1.7480   1.7480
     1.7481   1.9625   1.9625   2.1104   2.8733   2.8733   3.7982   3.7982
     3.7982   3.7982   3.9689   3.9690   3.9690   3.9690   4.0536   6.2272
     6.2273   6.2273   6.2273   6.4819   6.4819   7.4810   7.8341   8.0318
     8.0318   8.0318

     occupation numbers 
     1.0000   1.0000   1.0000   1.0000   1.0000   1.0000   1.0000   1.0000
     1.0000   1.0000   1.0000   1.0000   1.0000   1.0000   1.0000   1.0000
     1.0000   1.0000   1.0000   1.0000   1.0000   1.0000   1.0000   1.0000
     1.0000   1.0000   1.0000   1.0000   1.0000   1.0000   1.0000   1.0000
     1.0000   1.0000   1.0000   1.0000   1.0000   1.0000   1.0000   1.0000
     1.0000   1.0000   1.0000   1.0000   1.0000   1.0000   1.0000   1.0000
     1.0000   1.0000   1.0000   1.0000   1.0000   1.0000   1.0000   1.0000
     1.0000   1.0000   1.0000   1.0000   1.0000   1.0000   1.0000   1.0000
     1.0000   1.0000   1.0000   1.0000   1.0000   1.0000   1.0000   1.0000
     1.0000   1.0000   1.0000   1.0000   1.0000   1.0000   1.0000   1.0000
     1.0000   1.0000   1.0000   1.0000   1.0000   1.0000   1.0000   1.0000
     1.0000   1.0000   1.0000   1.0000   1.0000   1.0000   1.0000   1.0000
     1.0000   1.0000   1.0000   1.0000   1.0000   1.0000   1.0000   1.0000
     1.0000   1.0000   1.0000   1.0000   1.0000   1.0000   1.0000   1.0000
     1.0000   1.0000   1.0000   1.0000   1.0000   1.0000   1.0000   1.0000
     1.0000   1.0000   1.0000   1.0000   1.0000   1.0000   1.0000   1.0000
     1.0000   0.0314   0.0314   0.0000   0.0000   0.0000   0.0000   0.0000
     0.0000   0.0000   0.0000   0.0000   0.0000   0.0000   0.0000   0.0000
     0.0000   0.0000   0.0000   0.0000   0.0000   0.0000   0.0000   0.0000
     0.0000   0.0000

          k = 0.0000 0.1429 0.0000 ( 16542 PWs)   bands (ev):

   -50.3393 -50.3390 -50.3244 -50.3244 -50.3177 -50.3177 -50.2604 -50.2496
   -50.2495 -50.2489 -50.2304 -50.2304 -50.2168 -50.2149 -50.2136 -50.2004
   -50.1961 -50.1817 -50.1787 -50.1786 -50.1515 -50.1338 -50.1332 -50.1265
   -50.1257 -50.1256 -50.1138 -50.0799 -50.0799 -50.0705 -50.0705 -50.0496
   -50.0487 -50.0401 -50.0298 -50.0297 -50.0213 -49.9904 -49.9903 -49.9861
   -49.9834 -49.9699 -49.9698 -49.9450 -49.9382 -49.9381 -49.9305 -49.9207
    -5.5497  -3.7273  -3.4987  -3.3699  -3.3699  -3.2926  -3.2925  -3.2343
    -3.2342  -3.1416  -3.0132  -3.0009  -2.9749  -2.5328  -2.5296  -2.1884
    -2.1748  -2.1748  -2.0745  -1.9759  -1.9334  -1.7911  -1.7910  -1.7172
    -1.5574  -1.3037  -1.3036  -1.1628  -1.1628  -1.0896  -1.0896  -0.8035
    -0.7619  -0.6339  -0.6306  -0.6268  -0.6268  -0.4256  -0.4255  -0.4241
    -0.4241  -0.4166  -0.4165  -0.3327  -0.3327  -0.3235  -0.2144  -0.1674
    -0.1650   0.0752   0.2502   0.3012   0.5289   0.5290   0.5303   0.5303
     0.5668   0.5669   0.6705   0.7400   0.7435   0.7435   0.7693   0.7824
     0.8509   1.0420   1.2060   1.3412   1.3755   1.3755   1.4364   1.4481
     1.5642   1.6283   1.6283   1.7295   1.7513   1.7732   1.7732   1.7813
     1.7813   1.8520   1.9545   2.0737   2.6609   2.7913   3.2123   3.2124
     3.3606   3.9907   3.9907   4.2442   4.3741   4.3742   4.6476   5.8426
     5.8426   5.9685   6.7366   6.8492   6.8492   7.3002   7.5367   7.8783
     8.0618   8.0619

     occupation numbers 
     1.0000   1.0000   1.0000   1.0000   1.0000   1.0000   1.0000   1.0000
     1.0000   1.0000   1.0000   1.0000   1.0000   1.0000   1.0000   1.0000
     1.0000   1.0000   1.0000   1.0000   1.0000   1.0000   1.0000   1.0000
     1.0000   1.0000   1.0000   1.0000   1.0000   1.0000   1.0000   1.0000
     1.0000   1.0000   1.0000   1.0000   1.0000   1.0000   1.0000   1.0000
     1.0000   1.0000   1.0000   1.0000   1.0000   1.0000   1.0000   1.0000
     1.0000   1.0000   1.0000   1.0000   1.0000   1.0000   1.0000   1.0000
     1.0000   1.0000   1.0000   1.0000   1.0000   1.0000   1.0000   1.0000
     1.0000   1.0000   1.0000   1.0000   1.0000   1.0000   1.0000   1.0000
     1.0000   1.0000   1.0000   1.0000   1.0000   1.0000   1.0000   1.0000
     1.0000   1.0000   1.0000   1.0000   1.0000   1.0000   1.0000   1.0000
     1.0000   1.0000   1.0000   1.0000   1.0000   1.0000   1.0000   1.0000
     1.0000   1.0000   1.0000   1.0000   1.0000   1.0000   1.0000   1.0000
     1.0000   1.0000   1.0000   1.0000   1.0000   1.0000   1.0000   1.0000
     1.0000   1.0000   1.0000   1.0000   1.0000   1.0000   1.0000   1.0000
     1.0000   1.0000   1.0000   1.0000   1.0000   1.0000   1.0000   1.0000
     1.0000   0.9755   0.0566   0.0000   0.0000   0.0000   0.0000   0.0000
     0.0000   0.0000   0.0000   0.0000   0.0000   0.0000   0.0000   0.0000
     0.0000   0.0000   0.0000   0.0000   0.0000   0.0000   0.0000   0.0000
     0.0000   0.0000

          k = 0.0000 0.2857 0.0000 ( 16546 PWs)   bands (ev):

   -50.3316 -50.3302 -50.3188 -50.3188 -50.3059 -50.3059 -50.2826 -50.2744
   -50.2709 -50.2709 -50.2487 -50.2486 -50.2161 -50.2087 -50.2071 -50.1913
   -50.1719 -50.1704 -50.1692 -50.1551 -50.1550 -50.1417 -50.1390 -50.1300
   -50.1106 -50.1106 -50.0958 -50.0926 -50.0926 -50.0738 -50.0738 -50.0559
   -50.0514 -50.0475 -50.0259 -50.0258 -50.0116 -50.0009 -50.0008 -49.9896
   -49.9788 -49.9608 -49.9607 -49.9540 -49.9412 -49.9411 -49.9257 -49.9206
    -5.3669  -4.2137  -3.3755  -3.3755  -3.3340  -3.3046  -3.3046  -3.0914
    -3.0914  -3.0389  -2.9334  -2.8781  -2.8149  -2.4809  -2.4751  -2.4107
    -2.4074  -2.4074  -2.3292  -2.1691  -2.1643  -1.8998  -1.7094  -1.7093
    -1.6187  -1.3918  -1.3917  -1.1153  -1.1153  -0.9568  -0.9523  -0.9523
    -0.7795  -0.6560  -0.6560  -0.5995  -0.5994  -0.5974  -0.5550  -0.5550
    -0.4568  -0.4568  -0.3710  -0.3329  -0.2422  -0.1658  -0.1657   0.0001
     0.2576   0.2734   0.3225   0.3870   0.5165   0.5165   0.6200   0.6851
     0.6852   0.7023   0.7023   0.7663   0.7944   0.8697   0.8697   0.9595
     1.0917   1.1162   1.3013   1.3262   1.3263   1.3321   1.3654   1.4252
     1.4399   1.4399   1.6532   1.6937   1.6937   1.7980   1.8125   1.9215
     1.9215   1.9309   1.9634   1.9822   2.1527   2.5729   2.7288   2.7288
     2.8112   4.0602   4.0602   4.5518   4.5519   4.7045   4.9185   5.4136
     6.1116   6.1116   6.6011   7.3716   7.5118   7.5119   7.7037   8.0102
     8.1341   8.1341

     occupation numbers 
     1.0000   1.0000   1.0000   1.0000   1.0000   1.0000   1.0000   1.0000
     1.0000   1.0000   1.0000   1.0000   1.0000   1.0000   1.0000   1.0000
     1.0000   1.0000   1.0000   1.0000   1.0000   1.0000   1.0000   1.0000
     1.0000   1.0000   1.0000   1.0000   1.0000   1.0000   1.0000   1.0000
     1.0000   1.0000   1.0000   1.0000   1.0000   1.0000   1.0000   1.0000
     1.0000   1.0000   1.0000   1.0000   1.0000   1.0000   1.0000   1.0000
     1.0000   1.0000   1.0000   1.0000   1.0000   1.0000   1.0000   1.0000
     1.0000   1.0000   1.0000   1.0000   1.0000   1.0000   1.0000   1.0000
     1.0000   1.0000   1.0000   1.0000   1.0000   1.0000   1.0000   1.0000
     1.0000   1.0000   1.0000   1.0000   1.0000   1.0000   1.0000   1.0000
     1.0000   1.0000   1.0000   1.0000   1.0000   1.0000   1.0000   1.0000
     1.0000   1.0000   1.0000   1.0000   1.0000   1.0000   1.0000   1.0000
     1.0000   1.0000   1.0000   1.0000   1.0000   1.0000   1.0000   1.0000
     1.0000   1.0000   1.0000   1.0000   1.0000   1.0000   1.0000   1.0000
     1.0000   1.0000   1.0000   1.0000   1.0000   1.0000   1.0000   1.0000
     1.0000   1.0000   1.0000   1.0000   1.0000   0.9999   0.9996   0.3299
     0.3298   0.2217   0.0292   0.0055   0.0000   0.0000   0.0000   0.0000
     0.0000   0.0000   0.0000   0.0000   0.0000   0.0000   0.0000   0.0000
     0.0000   0.0000   0.0000   0.0000   0.0000   0.0000   0.0000   0.0000
     0.0000   0.0000

          k = 0.0000 0.4286 0.0000 ( 16534 PWs)   bands (ev):

   -50.3191 -50.3160 -50.3074 -50.3074 -50.3025 -50.2971 -50.2910 -50.2910
   -50.2895 -50.2895 -50.2697 -50.2696 -50.2146 -50.2117 -50.1986 -50.1852
   -50.1712 -50.1588 -50.1543 -50.1520 -50.1479 -50.1380 -50.1313 -50.1313
   -50.1100 -50.1100 -50.0948 -50.0948 -50.0821 -50.0821 -50.0797 -50.0661
   -50.0533 -50.0522 -50.0195 -50.0194 -50.0110 -50.0109 -50.0027 -49.9953
   -49.9717 -49.9632 -49.9527 -49.9526 -49.9461 -49.9461 -49.9226 -49.9211
    -5.0709  -4.6773  -3.3559  -3.3559  -3.3276  -3.3276  -3.0693  -2.8987
    -2.8987  -2.8734  -2.8378  -2.7823  -2.7221  -2.6840  -2.6640  -2.6639
    -2.6562  -2.4371  -2.3888  -2.3726  -2.2799  -2.1789  -1.6013  -1.6012
    -1.4894  -1.4893  -1.4568  -1.2341  -1.0078  -1.0078  -0.8607  -0.8606
    -0.7473  -0.7472  -0.6818  -0.6817  -0.6768  -0.6526  -0.6526  -0.6111
    -0.6111  -0.5356  -0.4850  -0.3551   0.0897   0.1424   0.1425   0.2509
     0.2540   0.3044   0.3908   0.3908   0.4518   0.5836   0.6048   0.7187
     0.8003   0.8004   0.8299   0.8300   0.9042   1.0125   1.0378   1.0379
     1.2218   1.2309   1.2309   1.2964   1.3460   1.3605   1.3605   1.3804
     1.3842   1.4871   1.4933   1.5264   1.5265   1.5327   1.8487   1.8945
     1.9871   2.0029   2.1132   2.1133   2.2823   2.3270   2.3692   2.3692
     2.7543   3.7877   4.1877   4.1877   4.3751   4.3751   5.2888   5.9292
     6.2854   6.9870   6.9870   7.2639   7.9812   8.0101   8.0101   8.0919
     8.1751   8.1751

     occupation numbers 
     1.0000   1.0000   1.0000   1.0000   1.0000   1.0000   1.0000   1.0000
     1.0000   1.0000   1.0000   1.0000   1.0000   1.0000   1.0000   1.0000
     1.0000   1.0000   1.0000   1.0000   1.0000   1.0000   1.0000   1.0000
     1.0000   1.0000   1.0000   1.0000   1.0000   1.0000   1.0000   1.0000
     1.0000   1.0000   1.0000   1.0000   1.0000   1.0000   1.0000   1.0000
     1.0000   1.0000   1.0000   1.0000   1.0000   1.0000   1.0000   1.0000
     1.0000   1.0000   1.0000   1.0000   1.0000   1.0000   1.0000   1.0000
     1.0000   1.0000   1.0000   1.0000   1.0000   1.0000   1.0000   1.0000
     1.0000   1.0000   1.0000   1.0000   1.0000   1.0000   1.0000   1.0000
     1.0000   1.0000   1.0000   1.0000   1.0000   1.0000   1.0000   1.0000
     1.0000   1.0000   1.0000   1.0000   1.0000   1.0000   1.0000   1.0000
     1.0000   1.0000   1.0000   1.0000   1.0000   1.0000   1.0000   1.0000
     1.0000   1.0000   1.0000   1.0000   1.0000   1.0000   1.0000   1.0000
     1.0000   1.0000   1.0000   1.0000   1.0000   1.0000   1.0000   1.0000
     1.0000   1.0000   1.0000   1.0000   1.0000   1.0000   1.0000   1.0000
     1.0000   1.0000   1.0000   1.0000   1.0000   1.0000   0.9814   0.6901
     0.0034   0.0006   0.0000   0.0000   0.0000   0.0000   0.0000   0.0000
     0.0000   0.0000   0.0000   0.0000   0.0000   0.0000   0.0000   0.0000
     0.0000   0.0000   0.0000   0.0000   0.0000   0.0000   0.0000   0.0000
     0.0000   0.0000

          k = 0.1429 0.1429 0.0000 ( 16565 PWs)   bands (ev):

   -50.3368 -50.3367 -50.3227 -50.3226 -50.3203 -50.3070 -50.2697 -50.2696
   -50.2555 -50.2554 -50.2292 -50.2290 -50.2144 -50.2144 -50.2050 -50.2049
   -50.1897 -50.1896 -50.1666 -50.1664 -50.1453 -50.1452 -50.1422 -50.1292
   -50.1279 -50.1067 -50.1067 -50.0827 -50.0822 -50.0822 -50.0641 -50.0533
   -50.0477 -50.0391 -50.0389 -50.0199 -50.0198 -50.0012 -49.9846 -49.9845
   -49.9799 -49.9798 -49.9605 -49.9463 -49.9461 -49.9315 -49.9314 -49.9207
    -5.4895  -3.7201  -3.7201  -3.4861  -3.4542  -3.2167  -3.2167  -3.2061
    -3.0973  -2.9786  -2.9786  -2.9717  -2.9717  -2.5151  -2.5151  -2.3445
    -2.3444  -2.1487  -2.1486  -1.8971  -1.8971  -1.8662  -1.8662  -1.6843
    -1.5403  -1.5403  -1.4078  -1.1761  -1.1761  -0.9928  -0.7864  -0.7864
    -0.7250  -0.7249  -0.6180  -0.6180  -0.6166  -0.6166  -0.5961  -0.5960
    -0.4220  -0.4219  -0.3316  -0.3275  -0.2735  -0.1325  -0.0455  -0.0454
    -0.0424  -0.0423   0.2529   0.3306   0.3306   0.3475   0.4058   0.7288
     0.7288   0.7375   0.7375   0.7386   0.7386   0.8520   0.8521   0.8896
     0.8896   1.1364   1.1501   1.2950   1.2950   1.4217   1.4218   1.5085
     1.5086   1.5816   1.5816   1.6074   1.6778   1.8039   1.8040   1.8639
     1.8639   1.8964   2.0187   2.0383   2.5402   2.5826   2.5827   3.3721
     3.3721   4.0201   4.0201   4.2670   4.4084   4.6849   4.6849   6.0331
     6.2174   6.2174   6.3519   6.3520   7.3313   7.3390   7.3390   7.5922
     7.9223   8.8240

     occupation numbers 
     1.0000   1.0000   1.0000   1.0000   1.0000   1.0000   1.0000   1.0000
     1.0000   1.0000   1.0000   1.0000   1.0000   1.0000   1.0000   1.0000
     1.0000   1.0000   1.0000   1.0000   1.0000   1.0000   1.0000   1.0000
     1.0000   1.0000   1.0000   1.0000   1.0000   1.0000   1.0000   1.0000
     1.0000   1.0000   1.0000   1.0000   1.0000   1.0000   1.0000   1.0000
     1.0000   1.0000   1.0000   1.0000   1.0000   1.0000   1.0000   1.0000
     1.0000   1.0000   1.0000   1.0000   1.0000   1.0000   1.0000   1.0000
[...]
    -4.8469  -4.5546  -4.5546  -4.3381  -3.3553  -3.3147  -3.2907  -3.2907
    -2.8906  -2.8906  -2.8726  -2.8725  -2.8030  -2.8030  -2.7506  -2.7506
    -2.4397  -2.4397  -2.3780  -2.2495  -2.2494  -2.2087  -2.2087  -2.0854
    -2.0853  -2.0093  -2.0093  -1.8735  -1.1641  -1.0324  -1.0100  -1.0099
    -0.9736  -0.9735  -0.8669  -0.8119  -0.4962  -0.4962  -0.4059  -0.4008
    -0.4007  -0.3488  -0.2723  -0.2723  -0.1518  -0.1517  -0.0528  -0.0444
    -0.0444  -0.0227   0.1144   0.1144   0.2056   0.2056   0.2381   0.2874
     0.7657   0.7657   0.8834   0.9195   0.9196   0.9249   0.9249   0.9441
     0.9441   1.0030   1.0030   1.0347   1.4125   1.4125   1.4266   1.4266
     1.5432   1.5432   1.5623   1.6011   1.6012   1.6473   1.6473   1.6788
     2.0999   2.1587   2.1587   2.1619   2.1784   2.4771   2.4771   2.7246
     4.2518   4.2519   4.9106   4.9106   5.3211   5.3211   6.0313   6.0313
     6.0970   6.5597   6.5598   6.9252   7.1093   7.1093   7.4460   7.4460
     8.2716   8.2716

     occupation numbers 
     1.0000   1.0000   1.0000   1.0000   1.0000   1.0000   1.0000   1.0000
     1.0000   1.0000   1.0000   1.0000   1.0000   1.0000   1.0000   1.0000
     1.0000   1.0000   1.0000   1.0000   1.0000   1.0000   1.0000   1.0000
     1.0000   1.0000   1.0000   1.0000   1.0000   1.0000   1.0000   1.0000
     1.0000   1.0000   1.0000   1.0000   1.0000   1.0000   1.0000   1.0000
     1.0000   1.0000   1.0000   1.0000   1.0000   1.0000   1.0000   1.0000
     1.0000   1.0000   1.0000   1.0000   1.0000   1.0000   1.0000   1.0000
     1.0000   1.0000   1.0000   1.0000   1.0000   1.0000   1.0000   1.0000
     1.0000   1.0000   1.0000   1.0000   1.0000   1.0000   1.0000   1.0000
     1.0000   1.0000   1.0000   1.0000   1.0000   1.0000   1.0000   1.0000
     1.0000   1.0000   1.0000   1.0000   1.0000   1.0000   1.0000   1.0000
     1.0000   1.0000   1.0000   1.0000   1.0000   1.0000   1.0000   1.0000
     1.0000   1.0000   1.0000   1.0000   1.0000   1.0000   1.0000   1.0000
     1.0000   1.0000   1.0000   1.0000   1.0000   1.0000   1.0000   1.0000
     1.0000   1.0000   1.0000   1.0000   1.0000   1.0000   1.0000   1.0000
     1.0000   1.0000   1.0000   1.0000   1.0000   1.0000   1.0000   1.0000
     0.0000   0.0000   0.0000   0.0000   0.0000   0.0000   0.0000   0.0000
     0.0000   0.0000   0.0000   0.0000   0.0000   0.0000   0.0000   0.0000
     0.0000   0.0000   0.0000   0.0000   0.0000   0.0000   0.0000   0.0000
     0.0000   0.0000

     the Fermi energy is     1.9492 ev

!    total energy              =   -3369.97205017 Ry
     estimated scf accuracy    <          9.6E-09 Ry
     smearing contrib. (-TS)   =      -0.00269305 Ry
     internal energy E=F+TS    =   -3369.96935713 Ry

     The total energy is F=E-TS. E is the sum of the following terms:
     one-electron contribution =   -9351.80847388 Ry
     hartree contribution      =    4721.17379206 Ry
     xc contribution           =    -908.43943269 Ry
     ewald contribution        =    2169.10475738 Ry

     convergence has been achieved in   9 iterations

     negative rho (up, down):  2.836E+00 0.000E+00

     Forces acting on atoms (cartesian axes, Ry/au):

     atom    1 type  1   force =     0.00000000    0.00000000   -0.00000250
     atom    2 type  1   force =     0.00000000   -0.00000530   -0.00000038
     atom    3 type  1   force =     0.00000321    0.00000000    0.00000379
     atom    4 type  1   force =     0.00000080    0.00000080   -0.00000410
     atom    5 type  1   force =     0.00000000    0.00000000    0.00000586
     atom    6 type  1   force =     0.00000000    0.00000530   -0.00000038
     atom    7 type  1   force =    -0.00000530    0.00000000   -0.00000038
     atom    8 type  1   force =     0.00000080   -0.00000080   -0.00000410
     atom    9 type  1   force =     0.00000000    0.00000000    0.00000586
     atom   10 type  1   force =     0.00000000    0.00000321    0.00000379
     atom   11 type  1   force =    -0.00000321    0.00000000    0.00000379
     atom   12 type  1   force =    -0.00000080    0.00000080   -0.00000410
     atom   13 type  1   force =     0.00000000    0.00000000   -0.00000649
     atom   14 type  1   force =     0.00000000   -0.00000321    0.00000379
     atom   15 type  1   force =     0.00000530    0.00000000   -0.00000038
     atom   16 type  1   force =    -0.00000080   -0.00000080   -0.00000410
     The non-local contrib.  to forces
     atom    1 type  1   force =     0.00000000    0.00000000   -0.08686986
     atom    2 type  1   force =     0.00000000   -0.00001053    0.08687118
     atom    3 type  1   force =     0.00001034    0.00000000    0.08687232
     atom    4 type  1   force =    -0.00000041   -0.00000041   -0.08686194
     atom    5 type  1   force =     0.00000000    0.00000000   -0.08686345
     atom    6 type  1   force =     0.00000000    0.00001053    0.08687118
     atom    7 type  1   force =    -0.00001053    0.00000000    0.08687118
     atom    8 type  1   force =    -0.00000041    0.00000041   -0.08686194
     atom    9 type  1   force =     0.00000000    0.00000000   -0.08686345
     atom   10 type  1   force =    -0.00000000    0.00001034    0.08687232
     atom   11 type  1   force =    -0.00001034   -0.00000000    0.08687232
     atom   12 type  1   force =     0.00000041   -0.00000041   -0.08686194
     atom   13 type  1   force =     0.00000000    0.00000000   -0.08686890
     atom   14 type  1   force =     0.00000000   -0.00001034    0.08687232
     atom   15 type  1   force =     0.00001053    0.00000000    0.08687118
     atom   16 type  1   force =     0.00000041    0.00000041   -0.08686194
     The ionic contribution  to forces
     atom    1 type  1   force =     0.00000000    0.00000000  -77.65354837
     atom    2 type  1   force =     0.00000000   -0.00134355   77.65224210
     atom    3 type  1   force =     0.00145826    0.00000000   77.65139915
     atom    4 type  1   force =    -0.00006885   -0.00006885  -77.65164654
     atom    5 type  1   force =     0.00000000    0.00000000  -77.65108160
     atom    6 type  1   force =    -0.00000000    0.00134355   77.65224210
     atom    7 type  1   force =    -0.00134355    0.00000000   77.65224210
     atom    8 type  1   force =    -0.00006885    0.00006885  -77.65164654
     atom    9 type  1   force =     0.00000000    0.00000000  -77.65108160
     atom   10 type  1   force =    -0.00000000    0.00145826   77.65139915
     atom   11 type  1   force =    -0.00145826    0.00000000   77.65139915
     atom   12 type  1   force =     0.00006885   -0.00006885  -77.65164654
     atom   13 type  1   force =    -0.00000000    0.00000000  -77.65226727
     atom   14 type  1   force =    -0.00000000   -0.00145826   77.65139915
     atom   15 type  1   force =     0.00134355   -0.00000000   77.65224210
     atom   16 type  1   force =     0.00006885    0.00006885  -77.65164654
     The local contribution  to forces
     atom    1 type  1   force =    -0.00000000   -0.00000000   77.71231031
     atom    2 type  1   force =     0.00000000    0.00136021  -77.71105385
     atom    3 type  1   force =    -0.00143743   -0.00000000  -77.71026368
     atom    4 type  1   force =     0.00004621    0.00004621   77.71042248
     atom    5 type  1   force =    -0.00000000    0.00000000   77.70989647
     atom    6 type  1   force =     0.00000000   -0.00136021  -77.71105385
     atom    7 type  1   force =     0.00136021    0.00000000  -77.71105385
     atom    8 type  1   force =     0.00004621   -0.00004621   77.71042248
     atom    9 type  1   force =     0.00000000   -0.00000000   77.70989647
     atom   10 type  1   force =     0.00000000   -0.00143743  -77.71026368
     atom   11 type  1   force =     0.00143743   -0.00000000  -77.71026368
     atom   12 type  1   force =    -0.00004621    0.00004621   77.71042248
     atom   13 type  1   force =     0.00000000    0.00000000   77.71112592
     atom   14 type  1   force =     0.00000000    0.00143743  -77.71026368
     atom   15 type  1   force =    -0.00136021    0.00000000  -77.71105385
     atom   16 type  1   force =    -0.00004621   -0.00004621   77.71042248
     The core correction contribution to forces
     atom    1 type  1   force =     0.00000000    0.00000000    0.02804158
     atom    2 type  1   force =    -0.00000000    0.00000078   -0.02803848
     atom    3 type  1   force =    -0.00000116    0.00000000   -0.02803809
     atom    4 type  1   force =    -0.00000005   -0.00000005    0.02804215
     atom    5 type  1   force =     0.00000000   -0.00000000    0.02804015
     atom    6 type  1   force =     0.00000000   -0.00000078   -0.02803848
     atom    7 type  1   force =     0.00000078   -0.00000000   -0.02803848
     atom    8 type  1   force =    -0.00000005    0.00000005    0.02804215
     atom    9 type  1   force =    -0.00000000    0.00000000    0.02804015
     atom   10 type  1   force =     0.00000000   -0.00000116   -0.02803809
     atom   11 type  1   force =     0.00000116    0.00000000   -0.02803809
     atom   12 type  1   force =     0.00000005   -0.00000005    0.02804215
     atom   13 type  1   force =     0.00000000    0.00000000    0.02804038
     atom   14 type  1   force =     0.00000000    0.00000116   -0.02803809
     atom   15 type  1   force =    -0.00000078    0.00000000   -0.02803848
     atom   16 type  1   force =     0.00000005    0.00000005    0.02804215
     The Hubbard contrib.    to forces
     atom    1 type  1   force =     0.00000000    0.00000000    0.00000000
     atom    2 type  1   force =     0.00000000    0.00000000    0.00000000
     atom    3 type  1   force =     0.00000000    0.00000000    0.00000000
     atom    4 type  1   force =     0.00000000    0.00000000    0.00000000
     atom    5 type  1   force =     0.00000000    0.00000000    0.00000000
     atom    6 type  1   force =     0.00000000    0.00000000    0.00000000
     atom    7 type  1   force =     0.00000000    0.00000000    0.00000000
     atom    8 type  1   force =     0.00000000    0.00000000    0.00000000
     atom    9 type  1   force =     0.00000000    0.00000000    0.00000000
     atom   10 type  1   force =     0.00000000    0.00000000    0.00000000
     atom   11 type  1   force =     0.00000000    0.00000000    0.00000000
     atom   12 type  1   force =     0.00000000    0.00000000    0.00000000
     atom   13 type  1   force =     0.00000000    0.00000000    0.00000000
     atom   14 type  1   force =     0.00000000    0.00000000    0.00000000
     atom   15 type  1   force =     0.00000000    0.00000000    0.00000000
     atom   16 type  1   force =     0.00000000    0.00000000    0.00000000
     The SCF correction term to forces
     atom    1 type  1   force =    -0.00000000    0.00000000    0.00007006
     atom    2 type  1   force =     0.00000000   -0.00001221   -0.00001509
     atom    3 type  1   force =    -0.00002679   -0.00000000    0.00004033
     atom    4 type  1   force =     0.00002390    0.00002390    0.00004598
     atom    5 type  1   force =    -0.00000000   -0.00000000    0.00002053
     atom    6 type  1   force =     0.00000000    0.00001221   -0.00001509
     atom    7 type  1   force =    -0.00001221    0.00000000   -0.00001509
     atom    8 type  1   force =     0.00002390   -0.00002390    0.00004598
     atom    9 type  1   force =     0.00000000   -0.00000000    0.00002053
     atom   10 type  1   force =     0.00000000   -0.00002679    0.00004033
     atom   11 type  1   force =     0.00002679   -0.00000000    0.00004033
     atom   12 type  1   force =    -0.00002390    0.00002390    0.00004598
     atom   13 type  1   force =     0.00000000   -0.00000000   -0.00003040
     atom   14 type  1   force =    -0.00000000    0.00002679    0.00004033
     atom   15 type  1   force =     0.00001221    0.00000000   -0.00001509
     atom   16 type  1   force =    -0.00002390   -0.00002390    0.00004598

     Total force =     0.000020     Total SCF correction =     0.000175
     SCF correction compared to forces is large: reduce conv_thr to get better values


     Computing stress (Cartesian axis) and pressure


     negative rho (up, down):  2.836E+00 0.000E+00
          total   stress  (Ry/bohr**3)                   (kbar)     P=      -49.54
  -0.00045852   0.00000000   0.00000000          -67.45        0.00        0.00
   0.00000000  -0.00045852   0.00000000            0.00      -67.45        0.00
   0.00000000   0.00000000  -0.00009334            0.00        0.00      -13.73

     kinetic stress (kbar)  14904.59      0.00      0.00
                                0.00  14904.59      0.00
                                0.00      0.00  15158.33

     local   stress (kbar)-212469.87     -0.00      0.00
                               -0.00-212469.87     -0.00
                                0.00     -0.00 222756.11

     nonloc. stress (kbar)   -116.27      0.00      0.00
                                0.00   -116.27      0.00
                                0.00      0.00    -64.11

     hartree stress (kbar) 108801.33      0.00     -0.00
                                0.00 108801.33      0.00
                               -0.00      0.00-101202.58

     exc-cor stress (kbar)  11031.39      0.00      0.00
                                0.00  11031.39     -0.00
                                0.00     -0.00  11023.47

     corecor stress (kbar) -15198.10      0.00     -0.00
                                0.00 -15198.10     -0.00
                               -0.00     -0.00 -15205.08

     ewald   stress (kbar)  92979.47     -0.00     -0.00
                               -0.00  92979.47     -0.00
                               -0.00     -0.00-132479.87

     hubbard stress (kbar)      0.00      0.00      0.00
                                0.00      0.00      0.00
                                0.00      0.00      0.00

     DFT-D   stress (kbar)      0.00      0.00      0.00
                                0.00      0.00      0.00
                                0.00      0.00      0.00

     XDM     stress (kbar)      0.00      0.00      0.00
                                0.00      0.00      0.00
                                0.00      0.00      0.00

     dft-nl  stress (kbar)      0.00      0.00      0.00
                                0.00      0.00      0.00
                                0.00      0.00      0.00

     TS-vdW  stress (kbar)      0.00      0.00      0.00
                                0.00      0.00      0.00
                                0.00      0.00      0.00


     Energy error            =      1.5E-05
     Gradient error          =      6.5E-06

     bfgs converged in   5 scf cycles and   4 bfgs steps
     (criteria: energy <  1.0E-04 Ry, force <  1.0E-03 Ry/Bohr)

     End of BFGS Geometry Optimization

     Final energy   =   -3369.9720501720 Ry

     File ./surface.bfgs deleted, as requested
Begin final coordinates

ATOMIC_POSITIONS (angstrom)
Pt            0.0000000000        0.0000000000        0.0516719235
Pt            3.9767700000        1.9883996632        1.9367043282
Pt            1.9883595489        0.0000000000        1.9366914500
Pt            1.9883913922        1.9883913922        0.0516903364
Pt            0.0000000000        3.9767700000        0.0516880793
Pt            3.9767700000        5.9651403368        1.9367043282
Pt            1.9883996632        3.9767700000        1.9367043282
Pt            1.9883913922        5.9651486078        0.0516903364
Pt            3.9767700000        0.0000000000        0.0516880793
Pt            7.9535400000        1.9883595489        1.9366914500
Pt            5.9651804511        0.0000000000        1.9366914500
Pt            5.9651486078        1.9883913922        0.0516903364
Pt            3.9767700000        3.9767700000        0.0516874596
Pt            7.9535400000        5.9651804511        1.9366914500
Pt            5.9651403368        3.9767700000        1.9367043282
Pt            5.9651486078        5.9651486078        0.0516903364
End final coordinates



     Writing output data file ./surface.save/

     init_run     :      2.00s CPU      2.07s WALL (       1 calls)
     electrons    :    200.33s CPU    204.73s WALL (       5 calls)
     update_pot   :      1.22s CPU      1.23s WALL (       4 calls)
     forces       :      4.73s CPU      4.84s WALL (       5 calls)
     stress       :     14.21s CPU     14.37s WALL (       5 calls)

     Called by init_run:
     wfcinit      :      1.31s CPU      1.33s WALL (       1 calls)
     wfcinit:atom :      0.01s CPU      0.01s WALL (      10 calls)
     wfcinit:wfcr :      1.24s CPU      1.26s WALL (      10 calls)
     potinit      :      0.13s CPU      0.13s WALL (       1 calls)
     hinit0       :      0.20s CPU      0.22s WALL (       1 calls)

     Called by electrons:
     c_bands      :    168.15s CPU    170.20s WALL (      54 calls)
     sum_band     :     25.86s CPU     27.19s WALL (      54 calls)
     v_of_rho     :      1.92s CPU      1.96s WALL (      58 calls)
     v_h          :      0.13s CPU      0.13s WALL (      58 calls)
     v_xc         :      2.09s CPU      2.14s WALL (      68 calls)
     newd         :      4.46s CPU      5.03s WALL (      58 calls)
     mix_rho      :      0.21s CPU      0.22s WALL (      54 calls)

     Called by c_bands:
     init_us_2    :      0.76s CPU      0.78s WALL (    1190 calls)
     cegterg      :    164.74s CPU    166.68s WALL (     540 calls)

     Called by sum_band:
     sum_band:wei :      0.04s CPU      0.04s WALL (      54 calls)
     sum_band:loo :     20.24s CPU     20.51s WALL (      54 calls)
     sum_band:buf :      0.21s CPU      0.22s WALL (     540 calls)
     sum_band:ini :      0.31s CPU      0.31s WALL (     540 calls)
     sum_band:cal :      6.18s CPU      6.22s WALL (     540 calls)
     sum_band:bec :      0.22s CPU      0.22s WALL (     540 calls)
     addusdens    :      2.96s CPU      4.00s WALL (      54 calls)
     addusd:skk   :      0.06s CPU      0.07s WALL (      54 calls)
     addusd:dgemm :      1.08s CPU      2.08s WALL (      54 calls)
     addusd:qvan2 :      1.47s CPU      1.48s WALL (      54 calls)

     Called by *egterg:
     cdiaghg      :     30.63s CPU     30.82s WALL (    1648 calls)
     cegterg:over :     14.42s CPU     14.52s WALL (    1158 calls)
     cegterg:upda :      7.91s CPU      8.00s WALL (    1158 calls)
     cegterg:last :     16.03s CPU     16.14s WALL (     868 calls)
     cdiaghg:chol :      1.28s CPU      1.29s WALL (    1648 calls)
     cdiaghg:inve :      1.34s CPU      1.35s WALL (    1648 calls)
     cdiaghg:para :      3.73s CPU      3.76s WALL (    3296 calls)
     h_psi        :     83.47s CPU     84.67s WALL (    1708 calls)
     s_psi        :      7.21s CPU      7.30s WALL (    1708 calls)
     g_psi        :      0.16s CPU      0.16s WALL (    1158 calls)

     Called by h_psi:
     h_psi:calbec :     15.72s CPU     15.82s WALL (    1708 calls)
     vloc_psi     :     59.53s CPU     60.50s WALL (    1708 calls)
     add_vuspsi   :      7.87s CPU      7.95s WALL (    1708 calls)

     General routines
     calbec       :     25.46s CPU     25.62s WALL (    2498 calls)
     fft          :      1.65s CPU      1.69s WALL (     874 calls)
     ffts         :      0.06s CPU      0.06s WALL (     112 calls)
     fftw         :     69.20s CPU     70.33s WALL (  474026 calls)
     interpolate  :      0.13s CPU      0.13s WALL (      58 calls)

     Parallel routines
     fft_scatt_xy :      4.12s CPU      4.18s WALL (  475012 calls)
     fft_scatt_yz :     33.24s CPU     33.83s WALL (  475012 calls)

     PWSCF        :   3m43.60s CPU   3m50.55s WALL


   This run was terminated on:   0:28:38   6Dec2021            

=------------------------------------------------------------------------------=
   JOB DONE.
=------------------------------------------------------------------------------=
