
     Program PWSCF v.6.7MaX starts on  6Dec2021 at  0:24:46 

     This program is part of the open-source Quantum ESPRESSO suite
     for quantum simulation of materials; please cite
         "P. Giannozzi et al., J. Phys.:Condens. Matter 21 395502 (2009);
         "P. Giannozzi et al., J. Phys.:Condens. Matter 29 465901 (2017);
          URL http://www.quantum-espresso.org", 
     in publications or presentations arising from this work. More details at
     http://www.quantum-espresso.org/quote

     Parallel version (MPI), running on    32 processors

     MPI processes distributed on     1 nodes
     R & G space division:  proc/nbgrp/npool/nimage =      32
     Reading input from pt_surface.100.k.qe.8_8_1.in

     Current dimensions of program PWSCF are:
     Max number of different atomic species (ntypx) = 10
     Max number of k-points (npk) =  40000
     Max angular momentum in pseudopotentials (lmaxx) =  3

     Subspace diagonalization in iterative solution of the eigenvalue problem:
     one sub-group per band group will be used
     scalapack distributed-memory algorithm (size of sub-group:  5*  5 procs)

     Found symmetry operation: I + (  0.2500  0.2500  0.0000)
     This is a supercell, fractional translations are disabled

     Parallelization info
     --------------------
     sticks:   dense  smooth     PW     G-vecs:    dense   smooth      PW
     Min         168      67     18                16362     4131     600
     Max         169      68     19                16371     4140     609
     Sum        5393    2161    593               523697   132301   19369



     bravais-lattice index     =            8
     lattice parameter (alat)  =      15.0300  a.u.
     unit-cell volume          =    5966.5648 (a.u.)^3
     number of atoms/cell      =           16
     number of atomic types    =            1
     number of electrons       =       256.00
     number of Kohn-Sham states=          154
     kinetic-energy cutoff     =      30.0000  Ry
     charge density cutoff     =     300.0000  Ry
     scf convergence threshold =      1.0E-06
     mixing beta               =       0.3000
     number of iterations used =            8  plain     mixing
     energy convergence thresh.=      1.0E-04
     force convergence thresh. =      1.0E-03
     Exchange-correlation=  SLA  PW   PBX  PBC
                           (   1   4   3   4   0   0   0)
     nstep                     =           50


     celldm(1)=  15.030012  celldm(2)=   1.000000  celldm(3)=   1.757302
     celldm(4)=   0.000000  celldm(5)=   0.000000  celldm(6)=   0.000000

     crystal axes: (cart. coord. in units of alat)
               a(1) = (   1.000000   0.000000   0.000000 )  
               a(2) = (   0.000000   1.000000   0.000000 )  
               a(3) = (   0.000000   0.000000   1.757302 )  

     reciprocal axes: (cart. coord. in units 2 pi/alat)
               b(1) = (  1.000000  0.000000  0.000000 )  
               b(2) = (  0.000000  1.000000  0.000000 )  
               b(3) = (  0.000000  0.000000  0.569054 )  


     PseudoPot. # 1 for Pt read from file:
     /expanse/lustre/projects/csd622/tpascal/nano110/qe/pseudo/pt_pbe_v1.4.uspp.F.UPF
     MD5 check sum: f09d6de1a584b5a045c4fc126da2d0c4
     Pseudo is Ultrasoft + core correction, Zval = 16.0
     Generated by new atomic code, or converted to UPF format
     Using radial grid of  985 points,  6 beta functions with: 
                l(1) =   0
                l(2) =   0
                l(3) =   1
                l(4) =   1
                l(5) =   2
                l(6) =   2
     Q(r) pseudized with  8 coefficients,  rinner =    1.300   1.300   1.300
                                                       1.300   1.300

     atomic species   valence    mass     pseudopotential
        Pt            16.00   195.08400     Pt( 1.00)

      8 Sym. Ops. (no inversion) found


                                    s                        frac. trans.

      isym =  1     identity                                     

 cryst.   s( 1) = (     1          0          0      )
                  (     0          1          0      )
                  (     0          0          1      )

 cart.    s( 1) = (  1.0000000  0.0000000  0.0000000 )
                  (  0.0000000  1.0000000  0.0000000 )
                  (  0.0000000  0.0000000  1.0000000 )


      isym =  2     180 deg rotation - cart. axis [0,0,1]        

 cryst.   s( 2) = (    -1          0          0      )
                  (     0         -1          0      )
                  (     0          0          1      )

 cart.    s( 2) = ( -1.0000000  0.0000000  0.0000000 )
                  (  0.0000000 -1.0000000  0.0000000 )
                  (  0.0000000  0.0000000  1.0000000 )


      isym =  3      90 deg rotation - cart. axis [0,0,-1]       

 cryst.   s( 3) = (     0         -1          0      )
                  (     1          0          0      )
                  (     0          0          1      )

 cart.    s( 3) = (  0.0000000  1.0000000  0.0000000 )
                  ( -1.0000000  0.0000000  0.0000000 )
                  (  0.0000000  0.0000000  1.0000000 )


      isym =  4      90 deg rotation - cart. axis [0,0,1]        

 cryst.   s( 4) = (     0          1          0      )
                  (    -1          0          0      )
                  (     0          0          1      )

 cart.    s( 4) = (  0.0000000 -1.0000000  0.0000000 )
                  (  1.0000000  0.0000000  0.0000000 )
                  (  0.0000000  0.0000000  1.0000000 )


      isym =  5     inv. 180 deg rotation - cart. axis [0,1,0]   

 cryst.   s( 5) = (     1          0          0      )
                  (     0         -1          0      )
                  (     0          0          1      )

 cart.    s( 5) = (  1.0000000  0.0000000  0.0000000 )
                  (  0.0000000 -1.0000000  0.0000000 )
                  (  0.0000000  0.0000000  1.0000000 )


      isym =  6     inv. 180 deg rotation - cart. axis [1,0,0]   

 cryst.   s( 6) = (    -1          0          0      )
                  (     0          1          0      )
                  (     0          0          1      )

 cart.    s( 6) = ( -1.0000000  0.0000000  0.0000000 )
                  (  0.0000000  1.0000000  0.0000000 )
                  (  0.0000000  0.0000000  1.0000000 )


      isym =  7     inv. 180 deg rotation - cart. axis [1,1,0]   

 cryst.   s( 7) = (     0         -1          0      )
                  (    -1          0          0      )
                  (     0          0          1      )

 cart.    s( 7) = (  0.0000000 -1.0000000  0.0000000 )
                  ( -1.0000000  0.0000000  0.0000000 )
                  (  0.0000000  0.0000000  1.0000000 )


      isym =  8     inv. 180 deg rotation - cart. axis [1,-1,0]  

 cryst.   s( 8) = (     0          1          0      )
                  (     1          0          0      )
                  (     0          0          1      )

 cart.    s( 8) = (  0.0000000  1.0000000  0.0000000 )
                  (  1.0000000  0.0000000  0.0000000 )
                  (  0.0000000  0.0000000  1.0000000 )


     point group C_4v (4mm) 
     there are  5 classes
     the character table:

       E     2C4   C2    2s_v  2s_d 
A_1    1.00  1.00  1.00  1.00  1.00
A_2    1.00  1.00  1.00 -1.00 -1.00
B_1    1.00 -1.00  1.00  1.00 -1.00
B_2    1.00 -1.00  1.00 -1.00  1.00
E      2.00  0.00 -2.00  0.00  0.00

     the symmetry operations in each class and the name of the first element:

     E        1
          identity                                               
     2C4      3    4
           90 deg rotation - cart. axis [0,0,-1]                 
     C2       2
          180 deg rotation - cart. axis [0,0,1]                  
     2s_v     5    6
          inv. 180 deg rotation - cart. axis [0,1,0]             
     2s_d     7    8
          inv. 180 deg rotation - cart. axis [1,1,0]             

   Cartesian axes

     site n.     atom                  positions (alat units)
         1           Pt  tau(   1) = (   0.0000000   0.0000000   0.0000000  )
         2           Pt  tau(   2) = (   0.5000000   0.2500000   0.2500000  )
         3           Pt  tau(   3) = (   0.2500000   0.0000000   0.2500000  )
         4           Pt  tau(   4) = (   0.2500000   0.2500000   0.0000000  )
         5           Pt  tau(   5) = (   0.0000000   0.5000000   0.0000000  )
         6           Pt  tau(   6) = (   0.5000000   0.7500000   0.2500000  )
         7           Pt  tau(   7) = (   0.2500000   0.5000000   0.2500000  )
         8           Pt  tau(   8) = (   0.2500000   0.7500000   0.0000000  )
         9           Pt  tau(   9) = (   0.5000000   0.0000000   0.0000000  )
        10           Pt  tau(  10) = (   1.0000000   0.2500000   0.2500000  )
        11           Pt  tau(  11) = (   0.7500000   0.0000000   0.2500000  )
        12           Pt  tau(  12) = (   0.7500000   0.2500000   0.0000000  )
        13           Pt  tau(  13) = (   0.5000000   0.5000000   0.0000000  )
        14           Pt  tau(  14) = (   1.0000000   0.7500000   0.2500000  )
        15           Pt  tau(  15) = (   0.7500000   0.5000000   0.2500000  )
        16           Pt  tau(  16) = (   0.7500000   0.7500000   0.0000000  )

   Crystallographic axes

     site n.     atom                  positions (cryst. coord.)
         1           Pt  tau(   1) = (  0.0000000  0.0000000  0.0000000  )
         2           Pt  tau(   2) = (  0.5000000  0.2500000  0.1422636  )
         3           Pt  tau(   3) = (  0.2500000  0.0000000  0.1422636  )
         4           Pt  tau(   4) = (  0.2500000  0.2500000  0.0000000  )
         5           Pt  tau(   5) = (  0.0000000  0.5000000  0.0000000  )
         6           Pt  tau(   6) = (  0.5000000  0.7500000  0.1422636  )
         7           Pt  tau(   7) = (  0.2500000  0.5000000  0.1422636  )
         8           Pt  tau(   8) = (  0.2500000  0.7500000  0.0000000  )
         9           Pt  tau(   9) = (  0.5000000  0.0000000  0.0000000  )
        10           Pt  tau(  10) = (  1.0000000  0.2500000  0.1422636  )
        11           Pt  tau(  11) = (  0.7500000  0.0000000  0.1422636  )
        12           Pt  tau(  12) = (  0.7500000  0.2500000  0.0000000  )
        13           Pt  tau(  13) = (  0.5000000  0.5000000  0.0000000  )
        14           Pt  tau(  14) = (  1.0000000  0.7500000  0.1422636  )
        15           Pt  tau(  15) = (  0.7500000  0.5000000  0.1422636  )
        16           Pt  tau(  16) = (  0.7500000  0.7500000  0.0000000  )

     number of k points=    15  Gaussian smearing, width (Ry)=  0.0030
                       cart. coord. in units 2pi/alat
        k(    1) = (   0.0000000   0.0000000   0.0000000), wk =   0.0312500
        k(    2) = (   0.0000000   0.1250000   0.0000000), wk =   0.1250000
        k(    3) = (   0.0000000   0.2500000   0.0000000), wk =   0.1250000
        k(    4) = (   0.0000000   0.3750000   0.0000000), wk =   0.1250000
        k(    5) = (   0.0000000  -0.5000000   0.0000000), wk =   0.0625000
        k(    6) = (   0.1250000   0.1250000   0.0000000), wk =   0.1250000
        k(    7) = (   0.1250000   0.2500000   0.0000000), wk =   0.2500000
        k(    8) = (   0.1250000   0.3750000   0.0000000), wk =   0.2500000
        k(    9) = (   0.1250000  -0.5000000   0.0000000), wk =   0.1250000
        k(   10) = (   0.2500000   0.2500000   0.0000000), wk =   0.1250000
        k(   11) = (   0.2500000   0.3750000   0.0000000), wk =   0.2500000
        k(   12) = (   0.2500000  -0.5000000   0.0000000), wk =   0.1250000
        k(   13) = (   0.3750000   0.3750000   0.0000000), wk =   0.1250000
        k(   14) = (   0.3750000  -0.5000000   0.0000000), wk =   0.1250000
        k(   15) = (  -0.5000000  -0.5000000   0.0000000), wk =   0.0312500

                       cryst. coord.
        k(    1) = (   0.0000000   0.0000000   0.0000000), wk =   0.0312500
        k(    2) = (   0.0000000   0.1250000   0.0000000), wk =   0.1250000
        k(    3) = (   0.0000000   0.2500000   0.0000000), wk =   0.1250000
        k(    4) = (   0.0000000   0.3750000   0.0000000), wk =   0.1250000
        k(    5) = (   0.0000000  -0.5000000   0.0000000), wk =   0.0625000
        k(    6) = (   0.1250000   0.1250000   0.0000000), wk =   0.1250000
        k(    7) = (   0.1250000   0.2500000   0.0000000), wk =   0.2500000
        k(    8) = (   0.1250000   0.3750000   0.0000000), wk =   0.2500000
        k(    9) = (   0.1250000  -0.5000000   0.0000000), wk =   0.1250000
        k(   10) = (   0.2500000   0.2500000   0.0000000), wk =   0.1250000
        k(   11) = (   0.2500000   0.3750000   0.0000000), wk =   0.2500000
        k(   12) = (   0.2500000  -0.5000000   0.0000000), wk =   0.1250000
        k(   13) = (   0.3750000   0.3750000   0.0000000), wk =   0.1250000
        k(   14) = (   0.3750000  -0.5000000   0.0000000), wk =   0.1250000
        k(   15) = (  -0.5000000  -0.5000000   0.0000000), wk =   0.0312500

     Dense  grid:   523697 G-vectors     FFT dimensions: (  90,  90, 150)

     Smooth grid:   132301 G-vectors     FFT dimensions: (  54,  54,  96)

     Dynamical RAM for                 wfc:       1.21 MB

     Dynamical RAM for     wfc (w. buffer):      19.44 MB

     Dynamical RAM for           str. fact:       0.25 MB

     Dynamical RAM for           local pot:       0.00 MB

     Dynamical RAM for          nlocal pot:       2.27 MB

     Dynamical RAM for                qrad:       1.39 MB

     Dynamical RAM for          rho,v,vnew:       1.68 MB

     Dynamical RAM for               rhoin:       0.56 MB

     Dynamical RAM for            rho*nmix:       4.00 MB

     Dynamical RAM for           G-vectors:       0.97 MB

     Dynamical RAM for          h,s,v(r/c):       0.17 MB

     Dynamical RAM for          <psi|beta>:       0.68 MB

     Dynamical RAM for                 psi:       2.43 MB

     Dynamical RAM for                hpsi:       2.43 MB

     Dynamical RAM for                spsi:       2.43 MB

     Dynamical RAM for      wfcinit/wfcrot:       3.87 MB

     Dynamical RAM for           addusdens:      50.46 MB

     Dynamical RAM for          addusforce:      58.14 MB

     Dynamical RAM for         addusstress:      50.21 MB

     Estimated static dynamical RAM per process >      32.60 MB

     Estimated max dynamical RAM per process >      90.74 MB

     Estimated total dynamical RAM >       2.84 GB

     Initial potential from superposition of free atoms

     starting charge  247.99982, renormalised to  256.00000

     negative rho (up, down):  3.024E+00 0.000E+00
     Starting wfcs are  192 randomized atomic wfcs

     total cpu time spent up to now is        2.7 secs

     Self-consistent Calculation

     iteration #  1     ecut=    30.00 Ry     beta= 0.30
     Davidson diagonalization with overlap
     ethr =  1.00E-02,  avg # of iterations =  7.3

     negative rho (up, down):  2.871E+00 0.000E+00

     total cpu time spent up to now is       10.1 secs

     total energy              =   -3363.71443109 Ry
     estimated scf accuracy    <      29.84095135 Ry

     iteration #  2     ecut=    30.00 Ry     beta= 0.30
     Davidson diagonalization with overlap
     ethr =  1.00E-02,  avg # of iterations =  3.0

     negative rho (up, down):  2.857E+00 0.000E+00

     total cpu time spent up to now is       15.9 secs

     total energy              =   -3369.36540624 Ry
     estimated scf accuracy    <       4.92748321 Ry

     iteration #  3     ecut=    30.00 Ry     beta= 0.30
     Davidson diagonalization with overlap
     ethr =  1.92E-03,  avg # of iterations =  2.0

     negative rho (up, down):  2.830E+00 0.000E+00

     total cpu time spent up to now is       21.2 secs

     total energy              =   -3369.91775882 Ry
     estimated scf accuracy    <       0.24231983 Ry

     iteration #  4     ecut=    30.00 Ry     beta= 0.30
     Davidson diagonalization with overlap
     ethr =  9.47E-05,  avg # of iterations =  7.7

     negative rho (up, down):  2.808E+00 0.000E+00

     total cpu time spent up to now is       29.1 secs

     total energy              =   -3369.93976299 Ry
     estimated scf accuracy    <       0.05851904 Ry

     iteration #  5     ecut=    30.00 Ry     beta= 0.30
     Davidson diagonalization with overlap
     ethr =  2.29E-05,  avg # of iterations =  3.7

     negative rho (up, down):  2.807E+00 0.000E+00

     total cpu time spent up to now is       35.2 secs

     total energy              =   -3369.95262016 Ry
     estimated scf accuracy    <       0.10260548 Ry

     iteration #  6     ecut=    30.00 Ry     beta= 0.30
     Davidson diagonalization with overlap
     ethr =  2.29E-05,  avg # of iterations =  1.7

     negative rho (up, down):  2.806E+00 0.000E+00

     total cpu time spent up to now is       39.5 secs

     total energy              =   -3369.95000055 Ry
     estimated scf accuracy    <       0.03408146 Ry

     iteration #  7     ecut=    30.00 Ry     beta= 0.30
     Davidson diagonalization with overlap
     ethr =  1.33E-05,  avg # of iterations =  2.0

     negative rho (up, down):  2.804E+00 0.000E+00

     total cpu time spent up to now is       44.2 secs

     total energy              =   -3369.94939726 Ry
     estimated scf accuracy    <       0.01150480 Ry

     iteration #  8     ecut=    30.00 Ry     beta= 0.30
     Davidson diagonalization with overlap
     ethr =  4.49E-06,  avg # of iterations =  3.8

     negative rho (up, down):  2.803E+00 0.000E+00

     total cpu time spent up to now is       50.0 secs

     total energy              =   -3369.95123039 Ry
     estimated scf accuracy    <       0.00192193 Ry

     iteration #  9     ecut=    30.00 Ry     beta= 0.30
     Davidson diagonalization with overlap
     ethr =  7.51E-07,  avg # of iterations =  1.9

     negative rho (up, down):  2.801E+00 0.000E+00

     total cpu time spent up to now is       54.6 secs

     total energy              =   -3369.95118524 Ry
     estimated scf accuracy    <       0.00180503 Ry

     iteration # 10     ecut=    30.00 Ry     beta= 0.30
     Davidson diagonalization with overlap
     ethr =  7.05E-07,  avg # of iterations =  4.4

     negative rho (up, down):  2.802E+00 0.000E+00

     total cpu time spent up to now is       60.0 secs

     total energy              =   -3369.95132972 Ry
     estimated scf accuracy    <       0.00065905 Ry

     iteration # 11     ecut=    30.00 Ry     beta= 0.30
     Davidson diagonalization with overlap
     ethr =  2.57E-07,  avg # of iterations =  1.3

     negative rho (up, down):  2.802E+00 0.000E+00

     total cpu time spent up to now is       64.3 secs

     total energy              =   -3369.95132777 Ry
     estimated scf accuracy    <       0.00036087 Ry

     iteration # 12     ecut=    30.00 Ry     beta= 0.30
     Davidson diagonalization with overlap
     ethr =  1.41E-07,  avg # of iterations =  2.9

     negative rho (up, down):  2.802E+00 0.000E+00

     total cpu time spent up to now is       69.2 secs

     total energy              =   -3369.95136815 Ry
     estimated scf accuracy    <       0.00000846 Ry

     iteration # 13     ecut=    30.00 Ry     beta= 0.30
     Davidson diagonalization with overlap
     ethr =  3.31E-09,  avg # of iterations =  2.1

     negative rho (up, down):  2.802E+00 0.000E+00

     total cpu time spent up to now is       74.7 secs

     total energy              =   -3369.95137016 Ry
     estimated scf accuracy    <       0.00001307 Ry

     iteration # 14     ecut=    30.00 Ry     beta= 0.30
     Davidson diagonalization with overlap
     ethr =  3.31E-09,  avg # of iterations =  1.0

     negative rho (up, down):  2.802E+00 0.000E+00

     total cpu time spent up to now is       78.8 secs

     End of self-consistent calculation

          k = 0.0000 0.0000 0.0000 ( 16575 PWs)   bands (ev):

   -50.3354 -50.3354 -50.3202 -50.3202 -50.3202 -50.3202 -50.2315 -50.2315
   -50.2315 -50.2315 -50.2213 -50.2213 -50.2182 -50.2182 -50.2182 -50.2182
   -50.1902 -50.1902 -50.1902 -50.1902 -50.1363 -50.1363 -50.1363 -50.1363
   -50.1266 -50.1266 -50.1259 -50.0718 -50.0718 -50.0718 -50.0718 -50.0505
   -50.0505 -50.0368 -50.0368 -50.0368 -50.0367 -49.9912 -49.9912 -49.9889
   -49.9889 -49.9888 -49.9888 -49.9480 -49.9479 -49.9479 -49.9479 -49.9329
    -5.5646  -3.5299  -3.2729  -3.2729  -3.2729  -3.2729  -3.2454  -3.2454
    -3.2454  -3.2454  -3.1242  -2.9988  -2.9988  -2.4917  -2.4917  -1.9975
    -1.9975  -1.9975  -1.9975  -1.7890  -1.7890  -1.7890  -1.7890  -1.7785
    -1.2313  -1.2313  -1.2313  -1.2313  -1.1240  -1.1240  -1.1240  -1.1240
    -0.6100  -0.6100  -0.6100  -0.6100  -0.4834  -0.4834  -0.4834  -0.4834
    -0.2945  -0.2945  -0.2945  -0.2945  -0.2849  -0.2848  -0.2848  -0.2848
    -0.0955  -0.0955   0.1844   0.4251   0.4251   0.4251   0.4251   0.5290
     0.5290   0.5290   0.5290   0.6670   0.6670   0.6670   0.6670   0.7533
     0.7533   0.9151   1.3223   1.3793   1.3793   1.3793   1.3793   1.4220
     1.4220   1.6674   1.6674   1.6674   1.6674   1.7092   1.7092   1.7092
     1.7092   1.9337   1.9337   2.0900   2.8794   2.8794   3.7878   3.7878
     3.7878   3.7878   3.9062   3.9062   3.9062   3.9062   4.0028   6.2108
     6.2108   6.2108   6.2108   6.4950   6.4950   7.4788   7.8281   7.9996
     7.9997   7.9997

     occupation numbers 
     1.0000   1.0000   1.0000   1.0000   1.0000   1.0000   1.0000   1.0000
     1.0000   1.0000   1.0000   1.0000   1.0000   1.0000   1.0000   1.0000
     1.0000   1.0000   1.0000   1.0000   1.0000   1.0000   1.0000   1.0000
     1.0000   1.0000   1.0000   1.0000   1.0000   1.0000   1.0000   1.0000
     1.0000   1.0000   1.0000   1.0000   1.0000   1.0000   1.0000   1.0000
     1.0000   1.0000   1.0000   1.0000   1.0000   1.0000   1.0000   1.0000
     1.0000   1.0000   1.0000   1.0000   1.0000   1.0000   1.0000   1.0000
     1.0000   1.0000   1.0000   1.0000   1.0000   1.0000   1.0000   1.0000
     1.0000   1.0000   1.0000   1.0000   1.0000   1.0000   1.0000   1.0000
     1.0000   1.0000   1.0000   1.0000   1.0000   1.0000   1.0000   1.0000
     1.0000   1.0000   1.0000   1.0000   1.0000   1.0000   1.0000   1.0000
     1.0000   1.0000   1.0000   1.0000   1.0000   1.0000   1.0000   1.0000
     1.0000   1.0000   1.0000   1.0000   1.0000   1.0000   1.0000   1.0000
     1.0000   1.0000   1.0000   1.0000   1.0000   1.0000   1.0000   1.0000
     1.0000   1.0000   1.0000   1.0000   1.0000   1.0000   1.0000   1.0000
     1.0000   1.0000   1.0000   1.0000   1.0000   1.0000   1.0000   1.0000
     1.0000   0.0042   0.0042   0.0000   0.0000   0.0000   0.0000   0.0000
     0.0000   0.0000   0.0000   0.0000   0.0000   0.0000   0.0000   0.0000
     0.0000   0.0000   0.0000   0.0000   0.0000   0.0000   0.0000   0.0000
     0.0000   0.0000

          k = 0.0000 0.1250 0.0000 ( 16556 PWs)   bands (ev):

   -50.3334 -50.3333 -50.3206 -50.3206 -50.3152 -50.3152 -50.2519 -50.2421
   -50.2421 -50.2409 -50.2248 -50.2248 -50.2209 -50.2197 -50.2111 -50.1987
   -50.1955 -50.1806 -50.1792 -50.1792 -50.1529 -50.1303 -50.1303 -50.1286
   -50.1282 -50.1264 -50.1196 -50.0776 -50.0776 -50.0701 -50.0701 -50.0521
   -50.0514 -50.0446 -50.0359 -50.0359 -50.0284 -49.9976 -49.9976 -49.9921
   -49.9902 -49.9805 -49.9805 -49.9543 -49.9487 -49.9487 -49.9425 -49.9328
    -5.5173  -3.6226  -3.4870  -3.3153  -3.3153  -3.2477  -3.2477  -3.1940
    -3.1940  -3.0976  -2.9762  -2.9665  -2.9644  -2.4803  -2.4775  -2.1005
    -2.0855  -2.0855  -2.0005  -1.9078  -1.8695  -1.7613  -1.7613  -1.7526
    -1.4581  -1.3102  -1.3102  -1.1341  -1.1341  -1.1160  -1.1160  -0.7711
    -0.7561  -0.6036  -0.6004  -0.5921  -0.5921  -0.4260  -0.4260  -0.3570
    -0.3570  -0.3471  -0.3471  -0.3386  -0.3313  -0.3313  -0.2031  -0.1551
    -0.1159   0.0324   0.1875   0.2797   0.4919   0.4919   0.5468   0.5468
     0.5688   0.5688   0.6389   0.7030   0.7054   0.7054   0.7179   0.7520
     0.8005   1.0050   1.2636   1.3206   1.3525   1.3525   1.4099   1.4162
     1.5054   1.6099   1.6099   1.6682   1.6974   1.7160   1.7160   1.7363
     1.7363   1.8477   1.9270   2.0615   2.7152   2.8130   3.2702   3.2702
     3.3809   3.9235   3.9235   4.1515   4.2962   4.2962   4.4867   5.8526
     5.8526   6.0864   6.6913   6.7503   6.7504   7.3544   7.5213   7.8617
     8.0233   8.0234

     occupation numbers 
     1.0000   1.0000   1.0000   1.0000   1.0000   1.0000   1.0000   1.0000
     1.0000   1.0000   1.0000   1.0000   1.0000   1.0000   1.0000   1.0000
     1.0000   1.0000   1.0000   1.0000   1.0000   1.0000   1.0000   1.0000
     1.0000   1.0000   1.0000   1.0000   1.0000   1.0000   1.0000   1.0000
     1.0000   1.0000   1.0000   1.0000   1.0000   1.0000   1.0000   1.0000
     1.0000   1.0000   1.0000   1.0000   1.0000   1.0000   1.0000   1.0000
     1.0000   1.0000   1.0000   1.0000   1.0000   1.0000   1.0000   1.0000
     1.0000   1.0000   1.0000   1.0000   1.0000   1.0000   1.0000   1.0000
     1.0000   1.0000   1.0000   1.0000   1.0000   1.0000   1.0000   1.0000
     1.0000   1.0000   1.0000   1.0000   1.0000   1.0000   1.0000   1.0000
     1.0000   1.0000   1.0000   1.0000   1.0000   1.0000   1.0000   1.0000
     1.0000   1.0000   1.0000   1.0000   1.0000   1.0000   1.0000   1.0000
     1.0000   1.0000   1.0000   1.0000   1.0000   1.0000   1.0000   1.0000
     1.0000   1.0000   1.0000   1.0000   1.0000   1.0000   1.0000   1.0000
     1.0000   1.0000   1.0000   1.0000   1.0000   1.0000   1.0000   1.0000
     1.0000   1.0000   1.0000   1.0000   1.0000   1.0000   1.0000   1.0000
     1.0000   0.6354   0.0082   0.0000   0.0000   0.0000   0.0000   0.0000
     0.0000   0.0000   0.0000   0.0000   0.0000   0.0000   0.0000   0.0000
     0.0000   0.0000   0.0000   0.0000   0.0000   0.0000   0.0000   0.0000
     0.0000   0.0000

          k = 0.0000 0.2500 0.0000 ( 16540 PWs)   bands (ev):

   -50.3275 -50.3266 -50.3165 -50.3165 -50.3059 -50.3059 -50.2714 -50.2631
   -50.2608 -50.2608 -50.2402 -50.2402 -50.2200 -50.2148 -50.2058 -50.1915
   -50.1744 -50.1702 -50.1688 -50.1589 -50.1589 -50.1347 -50.1329 -50.1284
   -50.1170 -50.1170 -50.1035 -50.0875 -50.0875 -50.0725 -50.0725 -50.0570
   -50.0541 -50.0513 -50.0332 -50.0332 -50.0200 -50.0064 -50.0064 -49.9948
   -49.9870 -49.9727 -49.9727 -49.9613 -49.9509 -49.9509 -49.9383 -49.9327
    -5.3768  -4.0455  -3.3595  -3.3270  -3.3270  -3.2558  -3.2558  -3.0759
    -3.0759  -3.0187  -2.9137  -2.8718  -2.8021  -2.4420  -2.4348  -2.2892
    -2.2810  -2.2810  -2.1991  -2.0733  -2.0614  -1.7636  -1.6993  -1.6993
    -1.6762  -1.3783  -1.3783  -1.0824  -1.0824  -1.0179  -1.0179  -0.8943
    -0.7570  -0.6166  -0.6166  -0.5875  -0.4996  -0.4996  -0.4740  -0.4740
    -0.4422  -0.4422  -0.4076  -0.2894  -0.2141  -0.2141  -0.1753  -0.0627
     0.1935   0.2038   0.2382   0.3187   0.5526   0.5526   0.6243   0.6474
     0.6474   0.6650   0.6650   0.7325   0.7448   0.8068   0.8068   1.0062
     1.0232   1.0730   1.2207   1.3065   1.3065   1.3083   1.3645   1.3996
     1.4550   1.4550   1.6806   1.6857   1.6857   1.7265   1.7410   1.8017
     1.8322   1.8322   1.9069   1.9848   2.3059   2.6323   2.8230   2.8230
     2.9010   3.9781   3.9781   4.5240   4.5267   4.5267   5.1350   5.2041
     5.9643   5.9643   6.7344   7.1977   7.3378   7.3378   7.6486   7.9622
     8.0847   8.0848

     occupation numbers 
     1.0000   1.0000   1.0000   1.0000   1.0000   1.0000   1.0000   1.0000
     1.0000   1.0000   1.0000   1.0000   1.0000   1.0000   1.0000   1.0000
     1.0000   1.0000   1.0000   1.0000   1.0000   1.0000   1.0000   1.0000
     1.0000   1.0000   1.0000   1.0000   1.0000   1.0000   1.0000   1.0000
     1.0000   1.0000   1.0000   1.0000   1.0000   1.0000   1.0000   1.0000
     1.0000   1.0000   1.0000   1.0000   1.0000   1.0000   1.0000   1.0000
     1.0000   1.0000   1.0000   1.0000   1.0000   1.0000   1.0000   1.0000
     1.0000   1.0000   1.0000   1.0000   1.0000   1.0000   1.0000   1.0000
     1.0000   1.0000   1.0000   1.0000   1.0000   1.0000   1.0000   1.0000
     1.0000   1.0000   1.0000   1.0000   1.0000   1.0000   1.0000   1.0000
     1.0000   1.0000   1.0000   1.0000   1.0000   1.0000   1.0000   1.0000
     1.0000   1.0000   1.0000   1.0000   1.0000   1.0000   1.0000   1.0000
     1.0000   1.0000   1.0000   1.0000   1.0000   1.0000   1.0000   1.0000
     1.0000   1.0000   1.0000   1.0000   1.0000   1.0000   1.0000   1.0000
     1.0000   1.0000   1.0000   1.0000   1.0000   1.0000   1.0000   1.0000
     1.0000   1.0000   1.0000   1.0000   1.0000   1.0000   1.0000   0.9738
     0.8113   0.8113   0.0440   0.0000   0.0000   0.0000   0.0000   0.0000
     0.0000   0.0000   0.0000   0.0000   0.0000   0.0000   0.0000   0.0000
     0.0000   0.0000   0.0000   0.0000   0.0000   0.0000   0.0000   0.0000
     0.0000   0.0000

          k = 0.0000 0.3750 0.0000 ( 16540 PWs)   bands (ev):

   -50.3180 -50.3158 -50.3080 -50.3080 -50.2929 -50.2929 -50.2894 -50.2835
   -50.2792 -50.2792 -50.2587 -50.2587 -50.2182 -50.2113 -50.2069 -50.1835
   -50.1734 -50.1597 -50.1562 -50.1444 -50.1401 -50.1378 -50.1378 -50.1333
   -50.1021 -50.1021 -50.1012 -50.1012 -50.0887 -50.0789 -50.0789 -50.0649
   -50.0568 -50.0560 -50.0286 -50.0286 -50.0148 -50.0148 -50.0120 -49.9992
   -49.9820 -49.9686 -49.9657 -49.9657 -49.9546 -49.9546 -49.9354 -49.9328
    -5.1476  -4.4630  -3.3168  -3.3168  -3.2721  -3.2721  -3.1525  -2.9189
    -2.9189  -2.8893  -2.8308  -2.7436  -2.7201  -2.5464  -2.5087  -2.5078
    -2.5078  -2.3662  -2.3655  -2.2932  -2.1744  -2.0270  -1.6168  -1.6168
    -1.5496  -1.4476  -1.4476  -1.1548  -1.0060  -1.0060  -0.8898  -0.8898
    -0.6843  -0.6843  -0.6836  -0.6468  -0.6468  -0.5816  -0.5816  -0.5801
    -0.5801  -0.4971  -0.4377  -0.2672  -0.0498   0.0584   0.0584   0.1577
     0.1960   0.2580   0.4824   0.4824   0.4914   0.5344   0.6921   0.7212
     0.7679   0.7712   0.7712   0.7990   0.7990   0.9155   0.9441   0.9441
     1.2192   1.2367   1.2676   1.2746   1.2747   1.3015   1.3015   1.3418
     1.3683   1.4423   1.5328   1.5629   1.5629   1.7818   1.7893   1.8707
     1.8762   1.9242   1.9918   1.9918   2.3778   2.4071   2.4653   2.4653
     2.4654   4.0765   4.0765   4.2085   4.4083   4.4084   5.0127   5.8663
     6.1353   6.6195   6.6195   7.5845   7.8432   7.8432   7.8604   7.8810
     8.1287   8.1456

     occupation numbers 
     1.0000   1.0000   1.0000   1.0000   1.0000   1.0000   1.0000   1.0000
     1.0000   1.0000   1.0000   1.0000   1.0000   1.0000   1.0000   1.0000
     1.0000   1.0000   1.0000   1.0000   1.0000   1.0000   1.0000   1.0000
     1.0000   1.0000   1.0000   1.0000   1.0000   1.0000   1.0000   1.0000
     1.0000   1.0000   1.0000   1.0000   1.0000   1.0000   1.0000   1.0000
     1.0000   1.0000   1.0000   1.0000   1.0000   1.0000   1.0000   1.0000
     1.0000   1.0000   1.0000   1.0000   1.0000   1.0000   1.0000   1.0000
     1.0000   1.0000   1.0000   1.0000   1.0000   1.0000   1.0000   1.0000
     1.0000   1.0000   1.0000   1.0000   1.0000   1.0000   1.0000   1.0000
     1.0000   1.0000   1.0000   1.0000   1.0000   1.0000   1.0000   1.0000
     1.0000   1.0000   1.0000   1.0000   1.0000   1.0000   1.0000   1.0000
     1.0000   1.0000   1.0000   1.0000   1.0000   1.0000   1.0000   1.0000
     1.0000   1.0000   1.0000   1.0000   1.0000   1.0000   1.0000   1.0000
     1.0000   1.0000   1.0000   1.0000   1.0000   1.0000   1.0000   1.0000
     1.0000   1.0000   1.0000   1.0000   1.0000   1.0000   1.0000   1.0000
     1.0000   1.0000   1.0000   1.0000   1.0000   0.9957   0.9911   0.3265
     0.2612   0.0106   0.0000   0.0000   0.0000   0.0000   0.0000   0.0000
     0.0000   0.0000   0.0000   0.0000   0.0000   0.0000   0.0000   0.0000
     0.0000   0.0000   0.0000   0.0000   0.0000   0.0000   0.0000   0.0000
     0.0000   0.0000

          k = 0.0000-0.5000 0.0000 ( 16478 PWs)   bands (ev):

   -50.3051 -50.3051 -50.3013 -50.3013 -50.2953 -50.2953 -50.2953 -50.2953
   -50.2768 -50.2768 -50.2768 -50.2768 -50.2153 -50.2153 -50.1964 -50.1964
   -50.1575 -50.1574 -50.1493 -50.1493 -50.1422 -50.1422 -50.1182 -50.1182
   -50.1181 -50.1181 -50.0890 -50.0890 -50.0889 -50.0889 -50.0756 -50.0756
   -50.0578 -50.0577 -50.0224 -50.0224 -50.0224 -50.0223 -50.0050 -50.0049
   -49.9757 -49.9757 -49.9596 -49.9596 -49.9595 -49.9595 -49.9337 -49.9337
    -4.8382  -4.8382  -3.2948  -3.2948  -3.2948  -3.2948  -2.8756  -2.8756
    -2.7621  -2.7621  -2.7266  -2.7266  -2.7266  -2.7266  -2.7157  -2.7157
    -2.5214  -2.5214  -2.2768  -2.2768  -2.2305  -2.2305  -1.5279  -1.5278
    -1.5278  -1.5278  -1.3744  -1.3744  -0.8832  -0.8832  -0.8831  -0.8831
    -0.7204  -0.7204  -0.7204  -0.7204  -0.6415  -0.6415  -0.6415  -0.6415
    -0.5730  -0.5730  -0.3802  -0.3802   0.1679   0.1679   0.3099   0.3099
     0.3099   0.3099   0.3353   0.3354   0.4295   0.4295   0.6618   0.6618
     0.8384   0.8384   0.8384   0.8384   1.1010   1.1010   1.1010   1.1010
     1.1126   1.1126   1.2294   1.2294   1.3148   1.3148   1.4038   1.4038
     1.4038   1.4038   1.4199   1.4199   1.4323   1.4323   1.8363   1.8363
     2.0979   2.0979   2.1023   2.1023   2.1957   2.1957   2.1957   2.1957
     3.2467   3.2467   4.2244   4.2244   4.2244   4.2244   5.5584   5.5584
     6.6857   6.6857   7.5199   7.5199   7.5199   7.5199   8.1120   8.1120
     8.1558   8.1558

     occupation numbers 
     1.0000   1.0000   1.0000   1.0000   1.0000   1.0000   1.0000   1.0000
     1.0000   1.0000   1.0000   1.0000   1.0000   1.0000   1.0000   1.0000
     1.0000   1.0000   1.0000   1.0000   1.0000   1.0000   1.0000   1.0000
     1.0000   1.0000   1.0000   1.0000   1.0000   1.0000   1.0000   1.0000
     1.0000   1.0000   1.0000   1.0000   1.0000   1.0000   1.0000   1.0000
     1.0000   1.0000   1.0000   1.0000   1.0000   1.0000   1.0000   1.0000
     1.0000   1.0000   1.0000   1.0000   1.0000   1.0000   1.0000   1.0000
     1.0000   1.0000   1.0000   1.0000   1.0000   1.0000   1.0000   1.0000
     1.0000   1.0000   1.0000   1.0000   1.0000   1.0000   1.0000   1.0000
     1.0000   1.0000   1.0000   1.0000   1.0000   1.0000   1.0000   1.0000
     1.0000   1.0000   1.0000   1.0000   1.0000   1.0000   1.0000   1.0000
     1.0000   1.0000   1.0000   1.0000   1.0000   1.0000   1.0000   1.0000
     1.0000   1.0000   1.0000   1.0000   1.0000   1.0000   1.0000   1.0000
     1.0000   1.0000   1.0000   1.0000   1.0000   1.0000   1.0000   1.0000
     1.0000   1.0000   1.0000   1.0000   1.0000   1.0000   1.0000   1.0000
     1.0000   1.0000   1.0000   1.0000   1.0000   1.0000   0.7714   0.7713
     0.0000   0.0000   0.0000   0.0000   0.0000   0.0000   0.0000   0.0000
     0.0000   0.0000   0.0000   0.0000   0.0000   0.0000   0.0000   0.0000
     0.0000   0.0000   0.0000   0.0000   0.0000   0.0000   0.0000   0.0000
     0.0000   0.0000

          k = 0.1250 0.1250 0.0000 ( 16571 PWs)   bands (ev):

   -50.3315 -50.3315 -50.3192 -50.3191 -50.3176 -50.3068 -50.2600 -50.2600
   -50.2465 -50.2465 -50.2240 -50.2240 -50.2192 -50.2192 -50.2028 -50.2028
   -50.1895 -50.1895 -50.1680 -50.1680 -50.1475 -50.1475 -50.1351 -50.1273
   -50.1252 -50.1136 -50.1136 -50.0798 -50.0793 -50.0793 -50.0650 -50.0553
   -50.0505 -50.0438 -50.0438 -50.0274 -50.0274 -50.0066 -49.9911 -49.9911
   -49.9888 -49.9888 -49.9727 -49.9551 -49.9551 -49.9433 -49.9433 -49.9328
    -5.4709  -3.6184  -3.6184  -3.4501  -3.4121  -3.1883  -3.1883  -3.1641
    -3.0659  -2.9671  -2.9671  -2.9442  -2.9442  -2.4664  -2.4664  -2.2289
    -2.2289  -2.0619  -2.0619  -1.8428  -1.8428  -1.8234  -1.8234  -1.7269
    -1.4455  -1.4455  -1.3974  -1.2015  -1.2015  -1.0535  -0.7830  -0.7830
    -0.6868  -0.6868  -0.5972  -0.5972  -0.5862  -0.5862  -0.5174  -0.5174
    -0.4143  -0.4143  -0.2813  -0.2486  -0.2343  -0.1055  -0.1055  -0.0878
    -0.0615  -0.0615   0.1900   0.3111   0.3111   0.4082   0.4424   0.6920
     0.6920   0.7049   0.7049   0.7180   0.7180   0.7767   0.7767   0.8306
     0.8306   1.0814   1.2191   1.2858   1.2858   1.4001   1.4001   1.4640
     1.4640   1.5782   1.5782   1.5863   1.7082   1.7388   1.7388   1.7668
     1.7668   1.8378   1.9784   2.0339   2.6503   2.6503   2.6768   3.3907
     3.3907   3.9616   3.9616   4.2831   4.3005   4.5147   4.5147   5.9147
     6.2787   6.2787   6.3034   6.3034   7.2040   7.3839   7.3839   7.5636
     7.8952   8.6925

     occupation numbers 
     1.0000   1.0000   1.0000   1.0000   1.0000   1.0000   1.0000   1.0000
     1.0000   1.0000   1.0000   1.0000   1.0000   1.0000   1.0000   1.0000
     1.0000   1.0000   1.0000   1.0000   1.0000   1.0000   1.0000   1.0000
     1.0000   1.0000   1.0000   1.0000   1.0000   1.0000   1.0000   1.0000
     1.0000   1.0000   1.0000   1.0000   1.0000   1.0000   1.0000   1.0000
     1.0000   1.0000   1.0000   1.0000   1.0000   1.0000   1.0000   1.0000
     1.0000   1.0000   1.0000   1.0000   1.0000   1.0000   1.0000   1.0000
     1.0000   1.0000   1.0000   1.0000   1.0000   1.0000   1.0000   1.0000
     1.0000   1.0000   1.0000   1.0000   1.0000   1.0000   1.0000   1.0000
     1.0000   1.0000   1.0000   1.0000   1.0000   1.0000   1.0000   1.0000
     1.0000   1.0000   1.0000   1.0000   1.0000   1.0000   1.0000   1.0000
     1.0000   1.0000   1.0000   1.0000   1.0000   1.0000   1.0000   1.0000
     1.0000   1.0000   1.0000   1.0000   1.0000   1.0000   1.0000   1.0000
     1.0000   1.0000   1.0000   1.0000   1.0000   1.0000   1.0000   1.0000
     1.0000   1.0000   1.0000   1.0000   1.0000   1.0000   1.0000   1.0000
     1.0000   1.0000   1.0000   1.0000   1.0000   1.0000   1.0000   0.9992
     0.9992   0.7551   0.0000   0.0000   0.0000   0.0000   0.0000   0.0000
     0.0000   0.0000   0.0000   0.0000   0.0000   0.0000   0.0000   0.0000
     0.0000   0.0000   0.0000   0.0000   0.0000   0.0000   0.0000   0.0000
     0.0000   0.0000

          k = 0.1250 0.2500 0.0000 ( 16540 PWs)   bands (ev):

   -50.3263 -50.3255 -50.3185 -50.3133 -50.3103 -50.2944 -50.2770 -50.2755
   -50.2673 -50.2597 -50.2448 -50.2196 -50.2177 -50.2138 -50.2060 -50.1983
   -50.1816 -50.1703 -50.1643 -50.1566 -50.1478 -50.1450 -50.1347 -50.1301
   -50.1256 -50.1005 -50.0980 -50.0923 -50.0862 -50.0847 -50.0640 -50.0605
   -50.0518 -50.0507 -50.0415 -50.0244 -50.0189 -50.0157 -49.9973 -49.9938
   -49.9879 -49.9806 -49.9654 -49.9622 -49.9575 -49.9454 -49.9390 -49.9328
    -5.3331  -4.0315  -3.6064  -3.4822  -3.3424  -3.1547  -3.0945  -3.0304
    -2.9787  -2.9700  -2.8828  -2.8503  -2.7993  -2.4571  -2.4379  -2.4299
    -2.4256  -2.2176  -2.1314  -2.0305  -2.0133  -1.7680  -1.7497  -1.7227
    -1.6503  -1.4660  -1.4011  -1.2730  -1.0777  -0.9566  -0.8842  -0.7821
    -0.7803  -0.7129  -0.6700  -0.6094  -0.5838  -0.5381  -0.5229  -0.4721
    -0.3989  -0.3930  -0.3099  -0.2697  -0.2572  -0.1255  -0.1110   0.0907
     0.1944   0.2137   0.2164   0.2504   0.2969   0.4026   0.4253   0.6275
     0.7139   0.7785   0.8168   0.8180   0.8571   0.9107   0.9154   1.0242
     1.0296   1.0554   1.2242   1.2556   1.2764   1.3398   1.3711   1.3927
     1.4076   1.4983   1.5103   1.5211   1.6163   1.7889   1.8269   1.8294
     1.9586   1.9876   1.9927   2.0409   2.2354   2.2559   2.4749   2.9063
     3.4235   3.5308   4.0452   4.6010   4.6250   4.6866   5.1776   5.4029
     5.9640   6.4527   6.7587   6.7705   6.9821   7.4672   7.5655   7.6906
     7.9955   8.7242

     occupation numbers 
     1.0000   1.0000   1.0000   1.0000   1.0000   1.0000   1.0000   1.0000
     1.0000   1.0000   1.0000   1.0000   1.0000   1.0000   1.0000   1.0000
     1.0000   1.0000   1.0000   1.0000   1.0000   1.0000   1.0000   1.0000
     1.0000   1.0000   1.0000   1.0000   1.0000   1.0000   1.0000   1.0000
     1.0000   1.0000   1.0000   1.0000   1.0000   1.0000   1.0000   1.0000
     1.0000   1.0000   1.0000   1.0000   1.0000   1.0000   1.0000   1.0000
     1.0000   1.0000   1.0000   1.0000   1.0000   1.0000   1.0000   1.0000
     1.0000   1.0000   1.0000   1.0000   1.0000   1.0000   1.0000   1.0000
     1.0000   1.0000   1.0000   1.0000   1.0000   1.0000   1.0000   1.0000
     1.0000   1.0000   1.0000   1.0000   1.0000   1.0000   1.0000   1.0000
     1.0000   1.0000   1.0000   1.0000   1.0000   1.0000   1.0000   1.0000
     1.0000   1.0000   1.0000   1.0000   1.0000   1.0000   1.0000   1.0000
     1.0000   1.0000   1.0000   1.0000   1.0000   1.0000   1.0000   1.0000
     1.0000   1.0000   1.0000   1.0000   1.0000   1.0000   1.0000   1.0000
     1.0000   1.0000   1.0000   1.0000   1.0000   1.0000   1.0000   1.0000
     1.0000   1.0000   1.0000   1.0000   1.0000   0.9914   0.8572   0.8367
     0.0002   0.0000   0.0000   0.0000   0.0000   0.0000   0.0000   0.0000
     0.0000   0.0000   0.0000   0.0000   0.0000   0.0000   0.0000   0.0000
     0.0000   0.0000   0.0000   0.0000   0.0000   0.0000   0.0000   0.0000
     0.0000   0.0000

          k = 0.1250 0.3750 0.0000 ( 16534 PWs)   bands (ev):

   -50.3178 -50.3158 -50.3134 -50.3036 -50.2987 -50.2927 -50.2911 -50.2862
   -50.2785 -50.2755 -50.2652 -50.2397 -50.2151 -50.2056 -50.2053 -50.1887
   -50.1800 -50.1627 -50.1577 -50.1489 -50.1458 -50.1365 -50.1296 -50.1281
   -50.1198 -50.1087 -50.0965 -50.0937 -50.0866 -50.0844 -50.0674 -50.0663
   -50.0553 -50.0549 -50.0374 -50.0242 -50.0196 -50.0109 -50.0056 -49.9981
   -49.9830 -49.9731 -49.9695 -49.9614 -49.9589 -49.9487 -49.9359 -49.9331
    -5.1085  -4.4390  -3.5884  -3.5308  -3.1735  -3.1041  -3.0059  -2.9833
    -2.8447  -2.8092  -2.8033  -2.7322  -2.7118  -2.7003  -2.6469  -2.4213
    -2.3605  -2.3545  -2.3111  -2.2931  -2.1675  -2.0132  -1.6533  -1.6430
    -1.5239  -1.5228  -1.3768  -1.3131  -1.1326  -1.0323  -0.8503  -0.8112
    -0.7574  -0.7492  -0.7408  -0.6567  -0.6165  -0.5711  -0.5400  -0.4709
    -0.4207  -0.4074  -0.4025  -0.2327  -0.1837  -0.0567   0.1456   0.1744
     0.1927   0.2702   0.3306   0.4615   0.4975   0.4995   0.5160   0.5591
     0.6914   0.7374   0.7648   0.9585   0.9805   1.0171   1.0424   1.0566
     1.1567   1.2013   1.2105   1.2212   1.2554   1.2633   1.3195   1.3582
     1.3648   1.3921   1.4290   1.4832   1.5983   1.7769   1.7845   1.8489
     1.9020   1.9199   1.9579   2.0631   2.2321   2.3068   2.4678   2.6519
     3.0969   3.4895   3.7891   4.4229   4.7470   5.0782   5.0881   5.9231
     6.1127   6.1805   7.2158   7.2795   7.5865   7.7227   7.7287   7.9002
     7.9018   8.1605

     occupation numbers 
     1.0000   1.0000   1.0000   1.0000   1.0000   1.0000   1.0000   1.0000
     1.0000   1.0000   1.0000   1.0000   1.0000   1.0000   1.0000   1.0000
     1.0000   1.0000   1.0000   1.0000   1.0000   1.0000   1.0000   1.0000
     1.0000   1.0000   1.0000   1.0000   1.0000   1.0000   1.0000   1.0000
     1.0000   1.0000   1.0000   1.0000   1.0000   1.0000   1.0000   1.0000
     1.0000   1.0000   1.0000   1.0000   1.0000   1.0000   1.0000   1.0000
     1.0000   1.0000   1.0000   1.0000   1.0000   1.0000   1.0000   1.0000
     1.0000   1.0000   1.0000   1.0000   1.0000   1.0000   1.0000   1.0000
     1.0000   1.0000   1.0000   1.0000   1.0000   1.0000   1.0000   1.0000
     1.0000   1.0000   1.0000   1.0000   1.0000   1.0000   1.0000   1.0000
     1.0000   1.0000   1.0000   1.0000   1.0000   1.0000   1.0000   1.0000
     1.0000   1.0000   1.0000   1.0000   1.0000   1.0000   1.0000   1.0000
     1.0000   1.0000   1.0000   1.0000   1.0000   1.0000   1.0000   1.0000
     1.0000   1.0000   1.0000   1.0000   1.0000   1.0000   1.0000   1.0000
     1.0000   1.0000   1.0000   1.0000   1.0000   1.0000   1.0000   1.0000
     1.0000   1.0000   1.0000   1.0000   1.0000   0.9974   0.9944   0.6195
     0.0625   0.0156   0.0003   0.0000   0.0000   0.0000   0.0000   0.0000
     0.0000   0.0000   0.0000   0.0000   0.0000   0.0000   0.0000   0.0000
     0.0000   0.0000   0.0000   0.0000   0.0000   0.0000   0.0000   0.0000
     0.0000   0.0000

          k = 0.1250-0.5000 0.0000 ( 16506 PWs)   bands (ev):

   -50.3065 -50.3065 -50.3041 -50.3041 -50.3025 -50.3025 -50.2907 -50.2907
   -50.2834 -50.2834 -50.2599 -50.2599 -50.2111 -50.2111 -50.1938 -50.1938
   -50.1724 -50.1724 -50.1473 -50.1473 -50.1365 -50.1365 -50.1279 -50.1278
   -50.1107 -50.1107 -50.1056 -50.1056 -50.0751 -50.0751 -50.0738 -50.0738
   -50.0568 -50.0568 -50.0316 -50.0316 -50.0132 -50.0132 -50.0039 -50.0039
   -49.9766 -49.9766 -49.9667 -49.9667 -49.9533 -49.9533 -49.9340 -49.9340
    -4.8057  -4.8057  -3.5642  -3.5642  -3.0501  -3.0501  -2.9574  -2.9574
    -2.8323  -2.8323  -2.7415  -2.7414  -2.6375  -2.6375  -2.5847  -2.5846
    -2.5064  -2.5064  -2.2738  -2.2738  -2.2188  -2.2188  -1.5790  -1.5790
    -1.5137  -1.5137  -1.3495  -1.3495  -1.1767  -1.1767  -0.7531  -0.7531
    -0.7369  -0.7369  -0.6700  -0.6700  -0.6673  -0.6673  -0.5738  -0.5738
    -0.5008  -0.5008  -0.2877  -0.2877  -0.0027  -0.0027   0.1556   0.1556
     0.3412   0.3412   0.4401   0.4401   0.5563   0.5563   0.5678   0.5678
     0.6205   0.6205   0.9334   0.9334   1.0466   1.0466   1.0880   1.0880
     1.1962   1.1962   1.2461   1.2461   1.3100   1.3100   1.3341   1.3341
     1.3672   1.3672   1.3672   1.3672   1.4531   1.4531   1.9086   1.9086
     1.9833   1.9834   1.9966   1.9966   2.0941   2.0941   2.6827   2.6827
     3.4791   3.4791   3.6050   3.6050   4.9411   4.9411   5.6160   5.6160
     6.7416   6.7416   6.9458   6.9458   7.7008   7.7008   8.1030   8.1037
     8.1962   8.1962

     occupation numbers 
     1.0000   1.0000   1.0000   1.0000   1.0000   1.0000   1.0000   1.0000
     1.0000   1.0000   1.0000   1.0000   1.0000   1.0000   1.0000   1.0000
     1.0000   1.0000   1.0000   1.0000   1.0000   1.0000   1.0000   1.0000
     1.0000   1.0000   1.0000   1.0000   1.0000   1.0000   1.0000   1.0000
     1.0000   1.0000   1.0000   1.0000   1.0000   1.0000   1.0000   1.0000
     1.0000   1.0000   1.0000   1.0000   1.0000   1.0000   1.0000   1.0000
     1.0000   1.0000   1.0000   1.0000   1.0000   1.0000   1.0000   1.0000
     1.0000   1.0000   1.0000   1.0000   1.0000   1.0000   1.0000   1.0000
     1.0000   1.0000   1.0000   1.0000   1.0000   1.0000   1.0000   1.0000
     1.0000   1.0000   1.0000   1.0000   1.0000   1.0000   1.0000   1.0000
     1.0000   1.0000   1.0000   1.0000   1.0000   1.0000   1.0000   1.0000
     1.0000   1.0000   1.0000   1.0000   1.0000   1.0000   1.0000   1.0000
     1.0000   1.0000   1.0000   1.0000   1.0000   1.0000   1.0000   1.0000
     1.0000   1.0000   1.0000   1.0000   1.0000   1.0000   1.0000   1.0000
     1.0000   1.0000   1.0000   1.0000   1.0000   1.0000   1.0000   1.0000
     1.0000   1.0000   1.0000   1.0000   1.0000   1.0000   0.0390   0.0389
     0.0000   0.0000   0.0000   0.0000   0.0000   0.0000   0.0000   0.0000
     0.0000   0.0000   0.0000   0.0000   0.0000   0.0000   0.0000   0.0000
     0.0000   0.0000   0.0000   0.0000   0.0000   0.0000   0.0000   0.0000
     0.0000   0.0000

          k = 0.2500 0.2500 0.0000 ( 16567 PWs)   bands (ev):

   -50.3222 -50.3222 -50.3164 -50.3164 -50.3000 -50.2886 -50.2886 -50.2792
   -50.2776 -50.2775 -50.2276 -50.2276 -50.2110 -50.2110 -50.1986 -50.1986
   -50.1813 -50.1813 -50.1590 -50.1529 -50.1529 -50.1376 -50.1376 -50.1357
   -50.1212 -50.1004 -50.1004 -50.0888 -50.0861 -50.0861 -50.0647 -50.0597
   -50.0508 -50.0488 -50.0487 -50.0249 -50.0158 -50.0158 -49.9906 -49.9906
   -49.9888 -49.9888 -49.9647 -49.9647 -49.9588 -49.9409 -49.9409 -49.9332
    -5.2035  -3.9906  -3.9906  -3.6193  -3.2870  -3.0795  -2.9680  -2.9680
    -2.8325  -2.7971  -2.7971  -2.7927  -2.7927  -2.6453  -2.6453  -2.3935
    -2.3935  -2.2421  -2.2421  -1.9236  -1.9236  -1.8476  -1.8476  -1.7016
    -1.7016  -1.5734  -1.5307  -1.2019  -1.2019  -0.8822  -0.8506  -0.8506
    -0.8183  -0.8183  -0.7777  -0.7777  -0.5464  -0.3990  -0.3990  -0.3851
    -0.3851  -0.2987  -0.2987  -0.2165  -0.0952  -0.0704  -0.0206  -0.0205
     0.0365   0.1928   0.2074   0.2890   0.2890   0.3132   0.3132   0.6297
     0.6297   0.9544   0.9544   0.9775   0.9777   0.9777   1.0306   1.0306
     1.0974   1.0974   1.1558   1.1558   1.2658   1.2658   1.2741   1.3402
     1.3402   1.4338   1.4962   1.5393   1.5393   1.7430   1.8809   1.8809
     1.8845   1.9525   2.0505   2.1268   2.1268   2.4308   2.4308   2.9263
     2.9263   3.6006   4.3489   4.3489   4.9025   5.3042   5.3042   5.8838
     5.8838   6.5860   6.5860   6.8760   6.8760   7.1094   7.5920   7.8165
     8.0951   8.5168

     occupation numbers 
     1.0000   1.0000   1.0000   1.0000   1.0000   1.0000   1.0000   1.0000
     1.0000   1.0000   1.0000   1.0000   1.0000   1.0000   1.0000   1.0000
     1.0000   1.0000   1.0000   1.0000   1.0000   1.0000   1.0000   1.0000
     1.0000   1.0000   1.0000   1.0000   1.0000   1.0000   1.0000   1.0000
     1.0000   1.0000   1.0000   1.0000   1.0000   1.0000   1.0000   1.0000
     1.0000   1.0000   1.0000   1.0000   1.0000   1.0000   1.0000   1.0000
     1.0000   1.0000   1.0000   1.0000   1.0000   1.0000   1.0000   1.0000
     1.0000   1.0000   1.0000   1.0000   1.0000   1.0000   1.0000   1.0000
     1.0000   1.0000   1.0000   1.0000   1.0000   1.0000   1.0000   1.0000
     1.0000   1.0000   1.0000   1.0000   1.0000   1.0000   1.0000   1.0000
     1.0000   1.0000   1.0000   1.0000   1.0000   1.0000   1.0000   1.0000
     1.0000   1.0000   1.0000   1.0000   1.0000   1.0000   1.0000   1.0000
     1.0000   1.0000   1.0000   1.0000   1.0000   1.0000   1.0000   1.0000
     1.0000   1.0000   1.0000   1.0000   1.0000   1.0000   1.0000   1.0000
     1.0000   1.0000   1.0000   1.0000   1.0000   1.0000   1.0000   1.0000
     1.0000   1.0000   1.0000   1.0000   1.0000   1.0000   0.2109   0.2108
     0.1768   0.0005   0.0000   0.0000   0.0000   0.0000   0.0000   0.0000
     0.0000   0.0000   0.0000   0.0000   0.0000   0.0000   0.0000   0.0000
     0.0000   0.0000   0.0000   0.0000   0.0000   0.0000   0.0000   0.0000
     0.0000   0.0000

          k = 0.2500 0.3750 0.0000 ( 16567 PWs)   bands (ev):

   -50.3168 -50.3154 -50.3151 -50.3105 -50.3004 -50.3000 -50.2929 -50.2898
   -50.2859 -50.2611 -50.2489 -50.2193 -50.2099 -50.2062 -50.2004 -50.1912
   -50.1785 -50.1748 -50.1705 -50.1606 -50.1458 -50.1387 -50.1292 -50.1204
   -50.1203 -50.1188 -50.1112 -50.0955 -50.0752 -50.0739 -50.0673 -50.0596
   -50.0538 -50.0523 -50.0455 -50.0335 -50.0109 -50.0079 -49.9969 -49.9949
   -49.9856 -49.9810 -49.9721 -49.9688 -49.9530 -49.9439 -49.9375 -49.9339
    -4.9928  -4.3686  -3.9260  -3.7388  -3.1867  -3.0270  -2.9012  -2.8555
    -2.8090  -2.8072  -2.7730  -2.7251  -2.7059  -2.6521  -2.6217  -2.3967
    -2.3330  -2.3325  -2.3198  -2.1055  -2.0799  -1.9670  -1.7872  -1.7131
    -1.6084  -1.5810  -1.4469  -1.4023  -1.2967  -1.0673  -0.8424  -0.8097
    -0.7994  -0.7836  -0.7557  -0.6914  -0.6887  -0.4967  -0.3717  -0.2975
    -0.2944  -0.2741  -0.2720  -0.1670  -0.1174  -0.0923  -0.0810   0.0261
     0.1781   0.2234   0.2470   0.3037   0.3353   0.4873   0.4941   0.5005
     0.6009   0.7536   0.8846   1.0443   1.0448   1.0496   1.0497   1.0969
     1.1115   1.1168   1.1379   1.1573   1.2024   1.2262   1.2505   1.3084
     1.3385   1.3925   1.4346   1.4716   1.6073   1.6738   1.7766   1.8381
     1.9502   1.9608   1.9659   1.9994   2.0530   2.4811   2.8897   2.9754
     3.1238   3.2775   3.8760   4.9159   5.2496   5.3043   5.5096   6.0883
     6.2169   6.3131   6.4743   7.0411   7.4046   7.4273   7.4529   7.8700
     7.9112   8.0256

     occupation numbers 
     1.0000   1.0000   1.0000   1.0000   1.0000   1.0000   1.0000   1.0000
     1.0000   1.0000   1.0000   1.0000   1.0000   1.0000   1.0000   1.0000
     1.0000   1.0000   1.0000   1.0000   1.0000   1.0000   1.0000   1.0000
     1.0000   1.0000   1.0000   1.0000   1.0000   1.0000   1.0000   1.0000
     1.0000   1.0000   1.0000   1.0000   1.0000   1.0000   1.0000   1.0000
     1.0000   1.0000   1.0000   1.0000   1.0000   1.0000   1.0000   1.0000
     1.0000   1.0000   1.0000   1.0000   1.0000   1.0000   1.0000   1.0000
     1.0000   1.0000   1.0000   1.0000   1.0000   1.0000   1.0000   1.0000
     1.0000   1.0000   1.0000   1.0000   1.0000   1.0000   1.0000   1.0000
     1.0000   1.0000   1.0000   1.0000   1.0000   1.0000   1.0000   1.0000
     1.0000   1.0000   1.0000   1.0000   1.0000   1.0000   1.0000   1.0000
     1.0000   1.0000   1.0000   1.0000   1.0000   1.0000   1.0000   1.0000
     1.0000   1.0000   1.0000   1.0000   1.0000   1.0000   1.0000   1.0000
     1.0000   1.0000   1.0000   1.0000   1.0000   1.0000   1.0000   1.0000
     1.0000   1.0000   1.0000   1.0000   1.0000   1.0000   1.0000   1.0000
     1.0000   1.0000   1.0000   1.0000   1.0000   1.0000   0.9975   0.7516
     0.0007   0.0002   0.0001   0.0000   0.0000   0.0000   0.0000   0.0000
     0.0000   0.0000   0.0000   0.0000   0.0000   0.0000   0.0000   0.0000
     0.0000   0.0000   0.0000   0.0000   0.0000   0.0000   0.0000   0.0000
     0.0000   0.0000

          k = 0.2500-0.5000 0.0000 ( 16554 PWs)   bands (ev):

   -50.3096 -50.3096 -50.3094 -50.3094 -50.3056 -50.3056 -50.3012 -50.3012
   -50.2687 -50.2687 -50.2407 -50.2407 -50.1996 -50.1996 -50.1921 -50.1921
   -50.1866 -50.1866 -50.1605 -50.1605 -50.1392 -50.1392 -50.1242 -50.1242
   -50.1233 -50.1233 -50.1060 -50.1060 -50.0693 -50.0693 -50.0644 -50.0644
   -50.0547 -50.0547 -50.0406 -50.0405 -50.0045 -50.0045 -50.0008 -50.0007
   -49.9792 -49.9792 -49.9743 -49.9743 -49.9479 -49.9479 -49.9353 -49.9353
    -4.7099  -4.7099  -3.8412  -3.8412  -3.0410  -3.0410  -2.9357  -2.9357
    -2.8443  -2.8443  -2.6871  -2.6871  -2.5785  -2.5785  -2.4829  -2.4829
    -2.3592  -2.3592  -2.2437  -2.2437  -2.1787  -2.1787  -1.6324  -1.6324
    -1.6086  -1.6086  -1.4659  -1.4658  -1.2752  -1.2752  -0.7971  -0.7971
    -0.7729  -0.7729  -0.6665  -0.6665  -0.5512  -0.5512  -0.5171  -0.5171
    -0.3119  -0.3119  -0.1747  -0.1747  -0.1658  -0.1658   0.1165   0.1165
     0.3134   0.3134   0.3208   0.3208   0.4688   0.4688   0.4785   0.4785
     0.6945   0.6945   0.7408   0.7408   1.0616   1.0616   1.0735   1.0735
     1.1017   1.1017   1.1650   1.1650   1.2043   1.2043   1.3253   1.3253
     1.3984   1.3984   1.4898   1.4898   1.5079   1.5079   1.8123   1.8123
     2.0036   2.0036   2.0132   2.0132   2.0943   2.0943   3.0799   3.0799
     3.3802   3.3802   3.9741   3.9741   5.7507   5.7507   5.7842   5.7842
     6.3744   6.3744   6.8089   6.8089   7.2459   7.2459   7.4347   7.4347
     8.3165   8.3166

     occupation numbers 
     1.0000   1.0000   1.0000   1.0000   1.0000   1.0000   1.0000   1.0000
     1.0000   1.0000   1.0000   1.0000   1.0000   1.0000   1.0000   1.0000
     1.0000   1.0000   1.0000   1.0000   1.0000   1.0000   1.0000   1.0000
     1.0000   1.0000   1.0000   1.0000   1.0000   1.0000   1.0000   1.0000
     1.0000   1.0000   1.0000   1.0000   1.0000   1.0000   1.0000   1.0000
     1.0000   1.0000   1.0000   1.0000   1.0000   1.0000   1.0000   1.0000
     1.0000   1.0000   1.0000   1.0000   1.0000   1.0000   1.0000   1.0000
     1.0000   1.0000   1.0000   1.0000   1.0000   1.0000   1.0000   1.0000
     1.0000   1.0000   1.0000   1.0000   1.0000   1.0000   1.0000   1.0000
     1.0000   1.0000   1.0000   1.0000   1.0000   1.0000   1.0000   1.0000
     1.0000   1.0000   1.0000   1.0000   1.0000   1.0000   1.0000   1.0000
     1.0000   1.0000   1.0000   1.0000   1.0000   1.0000   1.0000   1.0000
     1.0000   1.0000   1.0000   1.0000   1.0000   1.0000   1.0000   1.0000
     1.0000   1.0000   1.0000   1.0000   1.0000   1.0000   1.0000   1.0000
     1.0000   1.0000   1.0000   1.0000   1.0000   1.0000   1.0000   1.0000
     1.0000   1.0000   1.0000   1.0000   1.0000   1.0000   0.9423   0.9423
     0.0000   0.0000   0.0000   0.0000   0.0000   0.0000   0.0000   0.0000
     0.0000   0.0000   0.0000   0.0000   0.0000   0.0000   0.0000   0.0000
     0.0000   0.0000   0.0000   0.0000   0.0000   0.0000   0.0000   0.0000
     0.0000   0.0000

          k = 0.3750 0.3750 0.0000 ( 16582 PWs)   bands (ev):

   -50.3142 -50.3142 -50.3132 -50.3132 -50.3072 -50.3071 -50.3010 -50.3010
   -50.2700 -50.2412 -50.2312 -50.2312 -50.1985 -50.1985 -50.1934 -50.1929
   -50.1929 -50.1723 -50.1723 -50.1603 -50.1578 -50.1578 -50.1308 -50.1308
   -50.1152 -50.1152 -50.1150 -50.0981 -50.0661 -50.0652 -50.0652 -50.0558
   -50.0517 -50.0517 -50.0517 -50.0424 -50.0029 -50.0029 -49.9900 -49.9900
   -49.9890 -49.9889 -49.9763 -49.9763 -49.9478 -49.9401 -49.9401 -49.9353
    -4.8056  -4.2564  -4.2564  -3.9339  -3.1566  -3.0409  -2.9581  -2.9581
    -2.7162  -2.7162  -2.6837  -2.6837  -2.6130  -2.6130  -2.4254  -2.4254
    -2.3763  -2.2542  -2.2542  -1.9724  -1.9724  -1.8756  -1.8756  -1.8658
    -1.8658  -1.6329  -1.5556  -1.5556  -1.3215  -0.9664  -0.9664  -0.8527
    -0.8527  -0.8142  -0.7987  -0.6260  -0.6260  -0.5062  -0.2033  -0.2033
    -0.1702  -0.1702  -0.1344  -0.1152  -0.1152  -0.0590  -0.0534  -0.0534
    -0.0494   0.1162   0.1391   0.3262   0.3262   0.4270   0.4270   0.5889
     0.5889   0.6832   0.9137   0.9137   0.9254   0.9254   0.9361   0.9784
     0.9784   0.9933   0.9933   1.1526   1.3382   1.3382   1.3654   1.3654
     1.3848   1.3848   1.4734   1.5876   1.5877   1.6983   1.7424   1.7424
     1.8547   2.0259   2.0259   2.0389   2.0915   2.5279   2.5279   2.8942
     3.6614   3.6615   4.7717   4.7717   5.5143   5.5143   5.6352   6.3409
     6.3409   6.5249   6.5249   6.8325   6.8326   7.0601   7.0601   7.1226
     8.2310   8.4227

     occupation numbers 
     1.0000   1.0000   1.0000   1.0000   1.0000   1.0000   1.0000   1.0000
     1.0000   1.0000   1.0000   1.0000   1.0000   1.0000   1.0000   1.0000
     1.0000   1.0000   1.0000   1.0000   1.0000   1.0000   1.0000   1.0000
     1.0000   1.0000   1.0000   1.0000   1.0000   1.0000   1.0000   1.0000
     1.0000   1.0000   1.0000   1.0000   1.0000   1.0000   1.0000   1.0000
     1.0000   1.0000   1.0000   1.0000   1.0000   1.0000   1.0000   1.0000
     1.0000   1.0000   1.0000   1.0000   1.0000   1.0000   1.0000   1.0000
     1.0000   1.0000   1.0000   1.0000   1.0000   1.0000   1.0000   1.0000
     1.0000   1.0000   1.0000   1.0000   1.0000   1.0000   1.0000   1.0000
     1.0000   1.0000   1.0000   1.0000   1.0000   1.0000   1.0000   1.0000
     1.0000   1.0000   1.0000   1.0000   1.0000   1.0000   1.0000   1.0000
     1.0000   1.0000   1.0000   1.0000   1.0000   1.0000   1.0000   1.0000
     1.0000   1.0000   1.0000   1.0000   1.0000   1.0000   1.0000   1.0000
     1.0000   1.0000   1.0000   1.0000   1.0000   1.0000   1.0000   1.0000
     1.0000   1.0000   1.0000   1.0000   1.0000   1.0000   1.0000   1.0000
     1.0000   1.0000   1.0000   1.0000   1.0000   1.0000   1.0000   1.0000
     0.5417   0.0000   0.0000   0.0000   0.0000   0.0000   0.0000   0.0000
     0.0000   0.0000   0.0000   0.0000   0.0000   0.0000   0.0000   0.0000
     0.0000   0.0000   0.0000   0.0000   0.0000   0.0000   0.0000   0.0000
     0.0000   0.0000

          k = 0.3750-0.5000 0.0000 ( 16582 PWs)   bands (ev):

   -50.3119 -50.3119 -50.3116 -50.3116 -50.3091 -50.3091 -50.3082 -50.3082
   -50.2515 -50.2515 -50.2200 -50.2200 -50.2125 -50.2125 -50.1832 -50.1832
   -50.1784 -50.1784 -50.1763 -50.1763 -50.1516 -50.1516 -50.1442 -50.1442
   -50.1133 -50.1133 -50.1047 -50.1047 -50.0636 -50.0636 -50.0574 -50.0574
   -50.0530 -50.0530 -50.0489 -50.0489 -49.9964 -49.9964 -49.9958 -49.9958
   -49.9835 -49.9835 -49.9820 -49.9820 -49.9436 -49.9436 -49.9373 -49.9373
    -4.5557  -4.5557  -4.1089  -4.1089  -3.0785  -3.0785  -3.0193  -3.0193
    -2.6848  -2.6848  -2.6205  -2.6205  -2.5559  -2.5559  -2.5012  -2.5012
    -2.1406  -2.1405  -2.1067  -2.1067  -2.0978  -2.0978  -1.7850  -1.7850
    -1.7331  -1.7331  -1.7142  -1.7142  -1.1548  -1.1548  -0.8834  -0.8834
    -0.8580  -0.8580  -0.7399  -0.7399  -0.4359  -0.4359  -0.3627  -0.3627
    -0.1214  -0.1214  -0.1211  -0.1211  -0.0890  -0.0890   0.0540   0.0540
     0.1383   0.1384   0.2135   0.2135   0.2629   0.2629   0.4796   0.4797
     0.7143   0.7143   0.7488   0.7488   0.9112   0.9112   0.9222   0.9222
     0.9429   0.9429   1.0010   1.0010   1.3825   1.3825   1.4529   1.4529
     1.4876   1.4876   1.5482   1.5482   1.5600   1.5600   1.6797   1.6797
     2.0549   2.0549   2.0771   2.0771   2.1486   2.1486   2.6501   2.6501
     4.2199   4.2199   4.5538   4.5538   5.7575   5.7575   6.0504   6.0504
     6.1372   6.1372   6.6915   6.6915   6.8018   6.8018   7.3728   7.3728
     8.0453   8.5151

     occupation numbers 
     1.0000   1.0000   1.0000   1.0000   1.0000   1.0000   1.0000   1.0000
     1.0000   1.0000   1.0000   1.0000   1.0000   1.0000   1.0000   1.0000
     1.0000   1.0000   1.0000   1.0000   1.0000   1.0000   1.0000   1.0000
     1.0000   1.0000   1.0000   1.0000   1.0000   1.0000   1.0000   1.0000
     1.0000   1.0000   1.0000   1.0000   1.0000   1.0000   1.0000   1.0000
     1.0000   1.0000   1.0000   1.0000   1.0000   1.0000   1.0000   1.0000
     1.0000   1.0000   1.0000   1.0000   1.0000   1.0000   1.0000   1.0000
     1.0000   1.0000   1.0000   1.0000   1.0000   1.0000   1.0000   1.0000
     1.0000   1.0000   1.0000   1.0000   1.0000   1.0000   1.0000   1.0000
     1.0000   1.0000   1.0000   1.0000   1.0000   1.0000   1.0000   1.0000
     1.0000   1.0000   1.0000   1.0000   1.0000   1.0000   1.0000   1.0000
     1.0000   1.0000   1.0000   1.0000   1.0000   1.0000   1.0000   1.0000
     1.0000   1.0000   1.0000   1.0000   1.0000   1.0000   1.0000   1.0000
     1.0000   1.0000   1.0000   1.0000   1.0000   1.0000   1.0000   1.0000
     1.0000   1.0000   1.0000   1.0000   1.0000   1.0000   1.0000   1.0000
     1.0000   1.0000   1.0000   1.0000   1.0000   1.0000   1.0000   1.0000
     0.0000   0.0000   0.0000   0.0000   0.0000   0.0000   0.0000   0.0000
     0.0000   0.0000   0.0000   0.0000   0.0000   0.0000   0.0000   0.0000
     0.0000   0.0000   0.0000   0.0000   0.0000   0.0000   0.0000   0.0000
     0.0000   0.0000

          k =-0.5000-0.5000 0.0000 ( 16564 PWs)   bands (ev):

   -50.3116 -50.3116 -50.3115 -50.3115 -50.3115 -50.3115 -50.3115 -50.3115
   -50.2326 -50.2326 -50.2325 -50.2325 -50.1988 -50.1988 -50.1988 -50.1988
   -50.1642 -50.1642 -50.1642 -50.1642 -50.1642 -50.1642 -50.1642 -50.1642
   -50.1071 -50.1071 -50.1071 -50.1071 -50.0571 -50.0571 -50.0571 -50.0571
   -50.0532 -50.0532 -50.0532 -50.0532 -49.9894 -49.9894 -49.9894 -49.9894
   -49.9893 -49.9893 -49.9893 -49.9893 -49.9400 -49.9400 -49.9400 -49.9400
    -4.3516  -4.3516  -4.3516  -4.3516  -3.0699  -3.0699  -3.0698  -3.0698
    -2.5710  -2.5710  -2.5710  -2.5710  -2.5710  -2.5710  -2.5710  -2.5710
    -1.9632  -1.9632  -1.9632  -1.9632  -1.9632  -1.9632  -1.9632  -1.9632
    -1.8731  -1.8731  -1.8731  -1.8731  -1.0031  -1.0031  -1.0031  -1.0031
    -0.8792  -0.8792  -0.8792  -0.8792  -0.1194  -0.1194  -0.1194  -0.1194
    -0.1194  -0.1194  -0.1194  -0.1194  -0.0755  -0.0755  -0.0755  -0.0755
    -0.0220  -0.0220  -0.0220  -0.0220   0.3848   0.3848   0.3848   0.3848
     0.8105   0.8105   0.8105   0.8105   0.8105   0.8105   0.8105   0.8105
     0.8937   0.8937   0.8937   0.8937   1.5436   1.5436   1.5436   1.5436
     1.5446   1.5446   1.5446   1.5446   1.5446   1.5446   1.5446   1.5447
     2.0874   2.0875   2.0875   2.0875   2.3302   2.3302   2.3302   2.3302
     5.1578   5.1578   5.1578   5.1578   5.1578   5.1578   5.1578   5.1578
     6.3963   6.3964   6.3964   6.3964   7.6940   7.6940   7.6940   7.6940
     7.6940   7.6940

     occupation numbers 
     1.0000   1.0000   1.0000   1.0000   1.0000   1.0000   1.0000   1.0000
     1.0000   1.0000   1.0000   1.0000   1.0000   1.0000   1.0000   1.0000
     1.0000   1.0000   1.0000   1.0000   1.0000   1.0000   1.0000   1.0000
     1.0000   1.0000   1.0000   1.0000   1.0000   1.0000   1.0000   1.0000
     1.0000   1.0000   1.0000   1.0000   1.0000   1.0000   1.0000   1.0000
     1.0000   1.0000   1.0000   1.0000   1.0000   1.0000   1.0000   1.0000
     1.0000   1.0000   1.0000   1.0000   1.0000   1.0000   1.0000   1.0000
     1.0000   1.0000   1.0000   1.0000   1.0000   1.0000   1.0000   1.0000
     1.0000   1.0000   1.0000   1.0000   1.0000   1.0000   1.0000   1.0000
     1.0000   1.0000   1.0000   1.0000   1.0000   1.0000   1.0000   1.0000
     1.0000   1.0000   1.0000   1.0000   1.0000   1.0000   1.0000   1.0000
     1.0000   1.0000   1.0000   1.0000   1.0000   1.0000   1.0000   1.0000
     1.0000   1.0000   1.0000   1.0000   1.0000   1.0000   1.0000   1.0000
     1.0000   1.0000   1.0000   1.0000   1.0000   1.0000   1.0000   1.0000
     1.0000   1.0000   1.0000   1.0000   1.0000   1.0000   1.0000   1.0000
     1.0000   1.0000   1.0000   1.0000   1.0000   1.0000   1.0000   1.0000
     0.0000   0.0000   0.0000   0.0000   0.0000   0.0000   0.0000   0.0000
     0.0000   0.0000   0.0000   0.0000   0.0000   0.0000   0.0000   0.0000
     0.0000   0.0000   0.0000   0.0000   0.0000   0.0000   0.0000   0.0000
     0.0000   0.0000

     the Fermi energy is     1.8577 ev

!    total energy              =   -3369.95137126 Ry
     estimated scf accuracy    <       0.00000041 Ry
     smearing contrib. (-TS)   =      -0.00182753 Ry
     internal energy E=F+TS    =   -3369.94954373 Ry

     The total energy is F=E-TS. E is the sum of the following terms:
     one-electron contribution =   -9112.12106039 Ry
     hartree contribution      =    4601.96880807 Ry
     xc contribution           =    -908.01298695 Ry
     ewald contribution        =    2048.21569554 Ry

     convergence has been achieved in  14 iterations

     negative rho (up, down):  2.802E+00 0.000E+00

     Forces acting on atoms (cartesian axes, Ry/au):

     atom    1 type  1   force =     0.00000000    0.00000000    0.02698847
     atom    2 type  1   force =     0.00000000    0.00000416   -0.02699115
     atom    3 type  1   force =    -0.00001641    0.00000000   -0.02695301
     atom    4 type  1   force =     0.00000821    0.00000821    0.02697039
     atom    5 type  1   force =     0.00000000    0.00000000    0.02696115
     atom    6 type  1   force =     0.00000000   -0.00000416   -0.02699115
     atom    7 type  1   force =     0.00000416    0.00000000   -0.02699115
     atom    8 type  1   force =     0.00000821   -0.00000821    0.02697039
     atom    9 type  1   force =     0.00000000    0.00000000    0.02696115
     atom   10 type  1   force =    -0.00000000   -0.00001641   -0.02695301
     atom   11 type  1   force =     0.00001641   -0.00000000   -0.02695301
     atom   12 type  1   force =    -0.00000821    0.00000821    0.02697039
     atom   13 type  1   force =     0.00000000    0.00000000    0.02698428
     atom   14 type  1   force =     0.00000000    0.00001641   -0.02695301
     atom   15 type  1   force =    -0.00000416    0.00000000   -0.02699115
     atom   16 type  1   force =    -0.00000821   -0.00000821    0.02697039
     The non-local contrib.  to forces
     atom    1 type  1   force =     0.00000000    0.00000000   -0.07344875
     atom    2 type  1   force =    -0.00000000    0.00000152    0.07343870
     atom    3 type  1   force =    -0.00000706    0.00000000    0.07345304
     atom    4 type  1   force =     0.00000486    0.00000486   -0.07344995
     atom    5 type  1   force =     0.00000000    0.00000000   -0.07344922
     atom    6 type  1   force =     0.00000000   -0.00000152    0.07343870
     atom    7 type  1   force =     0.00000152   -0.00000000    0.07343870
     atom    8 type  1   force =     0.00000486   -0.00000486   -0.07344995
     atom    9 type  1   force =     0.00000000    0.00000000   -0.07344922
     atom   10 type  1   force =     0.00000000   -0.00000706    0.07345304
     atom   11 type  1   force =     0.00000706    0.00000000    0.07345304
     atom   12 type  1   force =    -0.00000486    0.00000486   -0.07344995
     atom   13 type  1   force =     0.00000000    0.00000000   -0.07345320
     atom   14 type  1   force =     0.00000000    0.00000706    0.07345304
     atom   15 type  1   force =    -0.00000152   -0.00000000    0.07343870
     atom   16 type  1   force =    -0.00000486   -0.00000486   -0.07344995
     The ionic contribution  to forces
     atom    1 type  1   force =     0.00000000    0.00000000  -77.02202201
     atom    2 type  1   force =     0.00000000   -0.00000000   77.02202201
     atom    3 type  1   force =    -0.00000000    0.00000000   77.02202201
     atom    4 type  1   force =    -0.00000000   -0.00000000  -77.02202201
     atom    5 type  1   force =     0.00000000    0.00000000  -77.02202201
     atom    6 type  1   force =    -0.00000000   -0.00000000   77.02202201
     atom    7 type  1   force =    -0.00000000    0.00000000   77.02202201
     atom    8 type  1   force =    -0.00000000    0.00000000  -77.02202201
     atom    9 type  1   force =     0.00000000    0.00000000  -77.02202201
     atom   10 type  1   force =     0.00000000   -0.00000000   77.02202201
     atom   11 type  1   force =     0.00000000    0.00000000   77.02202201
     atom   12 type  1   force =     0.00000000   -0.00000000  -77.02202201
     atom   13 type  1   force =     0.00000000    0.00000000  -77.02202201
     atom   14 type  1   force =    -0.00000000   -0.00000000   77.02202201
     atom   15 type  1   force =    -0.00000000   -0.00000000   77.02202201
     atom   16 type  1   force =     0.00000000    0.00000000  -77.02202201
     The local contribution  to forces
     atom    1 type  1   force =    -0.00000000   -0.00000000   77.09597120
     atom    2 type  1   force =     0.00000000   -0.00005563  -77.09616156
     atom    3 type  1   force =     0.00002626   -0.00000000  -77.09633008
     atom    4 type  1   force =    -0.00009040   -0.00009040   77.09613749
     atom    5 type  1   force =    -0.00000000    0.00000000   77.09617207
     atom    6 type  1   force =     0.00000000    0.00005563  -77.09616156
     atom    7 type  1   force =    -0.00005563    0.00000000  -77.09616156
     atom    8 type  1   force =    -0.00009040    0.00009040   77.09613749
     atom    9 type  1   force =     0.00000000   -0.00000000   77.09617207
     atom   10 type  1   force =     0.00000000    0.00002626  -77.09633008
     atom   11 type  1   force =    -0.00002626   -0.00000000  -77.09633008
     atom   12 type  1   force =     0.00009040   -0.00009040   77.09613749
     atom   13 type  1   force =     0.00000000    0.00000000   77.09613630
     atom   14 type  1   force =     0.00000000   -0.00002626  -77.09633008
     atom   15 type  1   force =     0.00005563    0.00000000  -77.09616156
     atom   16 type  1   force =     0.00009040    0.00009040   77.09613749
     The core correction contribution to forces
     atom    1 type  1   force =     0.00000000    0.00000000    0.02521568
     atom    2 type  1   force =     0.00000000    0.00000003   -0.02522284
     atom    3 type  1   force =    -0.00000203    0.00000000   -0.02522202
     atom    4 type  1   force =    -0.00000056   -0.00000056    0.02521884
     atom    5 type  1   force =     0.00000000   -0.00000000    0.02521928
     atom    6 type  1   force =     0.00000000   -0.00000003   -0.02522284
     atom    7 type  1   force =     0.00000003   -0.00000000   -0.02522284
     atom    8 type  1   force =    -0.00000056    0.00000056    0.02521884
     atom    9 type  1   force =     0.00000000    0.00000000    0.02521928
     atom   10 type  1   force =    -0.00000000   -0.00000203   -0.02522202
     atom   11 type  1   force =     0.00000203    0.00000000   -0.02522202
     atom   12 type  1   force =     0.00000056   -0.00000056    0.02521884
     atom   13 type  1   force =    -0.00000000   -0.00000000    0.02521935
     atom   14 type  1   force =     0.00000000    0.00000203   -0.02522202
     atom   15 type  1   force =    -0.00000003    0.00000000   -0.02522284
     atom   16 type  1   force =     0.00000056    0.00000056    0.02521884
     The Hubbard contrib.    to forces
     atom    1 type  1   force =     0.00000000    0.00000000    0.00000000
     atom    2 type  1   force =     0.00000000    0.00000000    0.00000000
     atom    3 type  1   force =     0.00000000    0.00000000    0.00000000
     atom    4 type  1   force =     0.00000000    0.00000000    0.00000000
     atom    5 type  1   force =     0.00000000    0.00000000    0.00000000
     atom    6 type  1   force =     0.00000000    0.00000000    0.00000000
     atom    7 type  1   force =     0.00000000    0.00000000    0.00000000
     atom    8 type  1   force =     0.00000000    0.00000000    0.00000000
     atom    9 type  1   force =     0.00000000    0.00000000    0.00000000
     atom   10 type  1   force =     0.00000000    0.00000000    0.00000000
     atom   11 type  1   force =     0.00000000    0.00000000    0.00000000
     atom   12 type  1   force =     0.00000000    0.00000000    0.00000000
     atom   13 type  1   force =     0.00000000    0.00000000    0.00000000
     atom   14 type  1   force =     0.00000000    0.00000000    0.00000000
     atom   15 type  1   force =     0.00000000    0.00000000    0.00000000
     atom   16 type  1   force =     0.00000000    0.00000000    0.00000000
     The SCF correction term to forces
     atom    1 type  1   force =     0.00000000    0.00000000    0.00126097
     atom    2 type  1   force =    -0.00000000    0.00005824   -0.00107884
     atom    3 type  1   force =    -0.00003358   -0.00000000   -0.00088733
     atom    4 type  1   force =     0.00009431    0.00009431    0.00107464
     atom    5 type  1   force =    -0.00000000   -0.00000000    0.00102966
     atom    6 type  1   force =    -0.00000000   -0.00005824   -0.00107884
     atom    7 type  1   force =     0.00005824    0.00000000   -0.00107884
     atom    8 type  1   force =     0.00009431   -0.00009431    0.00107464
     atom    9 type  1   force =    -0.00000000    0.00000000    0.00102966
     atom   10 type  1   force =    -0.00000000   -0.00003358   -0.00088733
     atom   11 type  1   force =     0.00003358   -0.00000000   -0.00088733
     atom   12 type  1   force =    -0.00009431    0.00009431    0.00107464
     atom   13 type  1   force =    -0.00000000   -0.00000000    0.00109246
     atom   14 type  1   force =    -0.00000000    0.00003358   -0.00088733
     atom   15 type  1   force =    -0.00005824    0.00000000   -0.00107884
     atom   16 type  1   force =    -0.00009431   -0.00009431    0.00107464

     Total force =     0.107888     Total SCF correction =     0.004173


     Computing stress (Cartesian axis) and pressure


     negative rho (up, down):  2.802E+00 0.000E+00
          total   stress  (Ry/bohr**3)                   (kbar)     P=      -66.73
  -0.00056621   0.00000000   0.00000000          -83.29        0.00        0.00
   0.00000000  -0.00056621   0.00000000            0.00      -83.29        0.00
   0.00000000   0.00000000  -0.00022853            0.00        0.00      -33.62

     kinetic stress (kbar)  14897.35      0.00      0.00
                                0.00  14897.35      0.00
                                0.00      0.00  15140.68

     local   stress (kbar)-205996.99     -0.00     -0.00
                               -0.00-205996.99     -0.00
                               -0.00     -0.00 215722.27

     nonloc. stress (kbar)   -122.12      0.00      0.00
                                0.00   -122.12      0.00
                                0.00      0.00    -73.49

     hartree stress (kbar) 105683.83     -0.00      0.00
                               -0.00 105683.83      0.00
                                0.00      0.00 -97906.56

     exc-cor stress (kbar)  11034.02      0.00      0.00
                                0.00  11034.02      0.00
                                0.00      0.00  11025.92

     corecor stress (kbar) -15197.76     -0.00      0.00
                               -0.00 -15197.76      0.00
                                0.00      0.00 -15204.25

     ewald   stress (kbar)  89618.37      0.00      0.00
                                0.00  89618.37      0.00
                                0.00      0.00-128738.18

     hubbard stress (kbar)      0.00      0.00      0.00
                                0.00      0.00      0.00
                                0.00      0.00      0.00

     DFT-D   stress (kbar)      0.00      0.00      0.00
                                0.00      0.00      0.00
                                0.00      0.00      0.00

     XDM     stress (kbar)      0.00      0.00      0.00
                                0.00      0.00      0.00
                                0.00      0.00      0.00

     dft-nl  stress (kbar)      0.00      0.00      0.00
                                0.00      0.00      0.00
                                0.00      0.00      0.00

     TS-vdW  stress (kbar)      0.00      0.00      0.00
                                0.00      0.00      0.00
                                0.00      0.00      0.00



     BFGS Geometry Optimization
     Energy error            =      0.0E+00
     Gradient error          =      2.7E-02

     number of scf cycles    =   1
     number of bfgs steps    =   0

     energy   new            =   -3369.9513712625 Ry

     new trust radius        =       0.0269911478 bohr
     new conv_thr            =       0.0000010000 Ry


ATOMIC_POSITIONS (angstrom)
Pt            0.0000000000        0.0000000000        0.0142816834
Pt            3.9767700000        1.9883871995        1.9741018998
Pt            1.9883763148        0.0000000000        1.9741220839
Pt            1.9883893462        1.9883893462        0.0142721153
Pt            0.0000000000        3.9767700000        0.0142672278
Pt            3.9767700000        5.9651528005        1.9741018998
Pt            1.9883871995        3.9767700000        1.9741018998
Pt            1.9883893462        5.9651506538        0.0142721153
Pt            3.9767700000        0.0000000000        0.0142672278
Pt            7.9535400000        1.9883763148        1.9741220839
Pt            5.9651636852       -0.0000000000        1.9741220839
Pt            5.9651506538        1.9883893462        0.0142721153
Pt            3.9767700000        3.9767700000        0.0142794652
Pt            7.9535400000        5.9651636852        1.9741220839
Pt            5.9651528005        3.9767700000        1.9741018998
Pt            5.9651506538        5.9651506538        0.0142721153



     Writing output data file ./surface.save/
     NEW-OLD atomic charge density approx. for the potential

     negative rho (up, down):  2.810E+00 0.000E+00

     total cpu time spent up to now is       84.1 secs

     Self-consistent Calculation

     iteration #  1     ecut=    30.00 Ry     beta= 0.30
     Davidson diagonalization with overlap
     ethr =  1.00E-06,  avg # of iterations =  7.1

     negative rho (up, down):  2.810E+00 0.000E+00

     total cpu time spent up to now is       96.9 secs

     total energy              =   -3369.96170748 Ry
     estimated scf accuracy    <       0.00062779 Ry

     iteration #  2     ecut=    30.00 Ry     beta= 0.30
     Davidson diagonalization with overlap
     ethr =  2.45E-07,  avg # of iterations =  1.6

     negative rho (up, down):  2.810E+00 0.000E+00

     total cpu time spent up to now is      101.3 secs

     total energy              =   -3369.96167606 Ry
     estimated scf accuracy    <       0.00028842 Ry

     iteration #  3     ecut=    30.00 Ry     beta= 0.30
     Davidson diagonalization with overlap
     ethr =  1.13E-07,  avg # of iterations =  2.0

     negative rho (up, down):  2.810E+00 0.000E+00

     total cpu time spent up to now is      106.0 secs

     total energy              =   -3369.96159290 Ry
     estimated scf accuracy    <       0.00155366 Ry

     iteration #  4     ecut=    30.00 Ry     beta= 0.30
     Davidson diagonalization with overlap
     ethr =  1.13E-07,  avg # of iterations =  1.7

     negative rho (up, down):  2.810E+00 0.000E+00

     total cpu time spent up to now is      110.5 secs

     total energy              =   -3369.96167277 Ry
     estimated scf accuracy    <       0.00028141 Ry

     iteration #  5     ecut=    30.00 Ry     beta= 0.30
     Davidson diagonalization with overlap
     ethr =  1.10E-07,  avg # of iterations =  2.1

[...]
    -4.6158  -4.6158  -4.6157  -4.6157  -3.3589  -3.3589  -3.3589  -3.3589
    -2.8500  -2.8500  -2.8500  -2.8500  -2.8499  -2.8499  -2.8499  -2.8499
    -2.2771  -2.2771  -2.2771  -2.2771  -2.2771  -2.2770  -2.2770  -2.2770
    -2.1194  -2.1194  -2.1194  -2.1193  -1.0459  -1.0459  -1.0459  -1.0458
    -1.0020  -1.0020  -1.0020  -1.0019  -0.4089  -0.4088  -0.4088  -0.4088
    -0.2346  -0.2346  -0.2345  -0.2345  -0.2345  -0.2345  -0.2344  -0.2344
     0.0767   0.0767   0.0767   0.0767   0.0799   0.0799   0.0799   0.0800
     0.8779   0.8780   0.8780   0.8780   0.8780   0.8780   0.8780   0.8780
     0.8921   0.8921   0.8921   0.8921   1.5108   1.5108   1.5108   1.5108
     1.5109   1.5109   1.5109   1.5109   1.5880   1.5880   1.5881   1.5881
     2.1582   2.1582   2.1582   2.1582   2.3876   2.3876   2.3876   2.3876
     5.0998   5.0999   5.0999   5.0999   5.0999   5.0999   5.0999   5.0999
     6.5136   6.5136   6.5136   6.5137   7.8389   7.8389   7.8389   7.8389
     7.8389   7.8390

     occupation numbers 
     1.0000   1.0000   1.0000   1.0000   1.0000   1.0000   1.0000   1.0000
     1.0000   1.0000   1.0000   1.0000   1.0000   1.0000   1.0000   1.0000
     1.0000   1.0000   1.0000   1.0000   1.0000   1.0000   1.0000   1.0000
     1.0000   1.0000   1.0000   1.0000   1.0000   1.0000   1.0000   1.0000
     1.0000   1.0000   1.0000   1.0000   1.0000   1.0000   1.0000   1.0000
     1.0000   1.0000   1.0000   1.0000   1.0000   1.0000   1.0000   1.0000
     1.0000   1.0000   1.0000   1.0000   1.0000   1.0000   1.0000   1.0000
     1.0000   1.0000   1.0000   1.0000   1.0000   1.0000   1.0000   1.0000
     1.0000   1.0000   1.0000   1.0000   1.0000   1.0000   1.0000   1.0000
     1.0000   1.0000   1.0000   1.0000   1.0000   1.0000   1.0000   1.0000
     1.0000   1.0000   1.0000   1.0000   1.0000   1.0000   1.0000   1.0000
     1.0000   1.0000   1.0000   1.0000   1.0000   1.0000   1.0000   1.0000
     1.0000   1.0000   1.0000   1.0000   1.0000   1.0000   1.0000   1.0000
     1.0000   1.0000   1.0000   1.0000   1.0000   1.0000   1.0000   1.0000
     1.0000   1.0000   1.0000   1.0000   1.0000   1.0000   1.0000   1.0000
     1.0000   1.0000   1.0000   1.0000   1.0000   1.0000   1.0000   1.0000
     0.0000   0.0000   0.0000   0.0000   0.0000   0.0000   0.0000   0.0000
     0.0000   0.0000   0.0000   0.0000   0.0000   0.0000   0.0000   0.0000
     0.0000   0.0000   0.0000   0.0000   0.0000   0.0000   0.0000   0.0000
     0.0000   0.0000

     the Fermi energy is     1.9171 ev

!    total energy              =   -3369.97462346 Ry
     estimated scf accuracy    <          2.2E-09 Ry
     smearing contrib. (-TS)   =      -0.00210706 Ry
     internal energy E=F+TS    =   -3369.97251639 Ry

     The total energy is F=E-TS. E is the sum of the following terms:
     one-electron contribution =   -9361.64191580 Ry
     hartree contribution      =    4725.82009919 Ry
     xc contribution           =    -908.43139435 Ry
     ewald contribution        =    2174.28069456 Ry

     convergence has been achieved in   8 iterations

     negative rho (up, down):  2.833E+00 0.000E+00

     Forces acting on atoms (cartesian axes, Ry/au):

     atom    1 type  1   force =     0.00000000    0.00000000    0.00002087
     atom    2 type  1   force =     0.00000000    0.00000553   -0.00000749
     atom    3 type  1   force =    -0.00000769    0.00000000   -0.00000390
     atom    4 type  1   force =     0.00000520    0.00000520    0.00000055
     atom    5 type  1   force =     0.00000000    0.00000000    0.00000415
     atom    6 type  1   force =     0.00000000   -0.00000553   -0.00000749
     atom    7 type  1   force =     0.00000553    0.00000000   -0.00000749
     atom    8 type  1   force =     0.00000520   -0.00000520    0.00000055
     atom    9 type  1   force =     0.00000000    0.00000000    0.00000415
     atom   10 type  1   force =     0.00000000   -0.00000769   -0.00000390
     atom   11 type  1   force =     0.00000769    0.00000000   -0.00000390
     atom   12 type  1   force =    -0.00000520    0.00000520    0.00000055
     atom   13 type  1   force =     0.00000000    0.00000000    0.00001417
     atom   14 type  1   force =     0.00000000    0.00000769   -0.00000390
     atom   15 type  1   force =    -0.00000553    0.00000000   -0.00000749
     atom   16 type  1   force =    -0.00000520   -0.00000520    0.00000055
     The non-local contrib.  to forces
     atom    1 type  1   force =     0.00000000    0.00000000   -0.08496953
     atom    2 type  1   force =     0.00000000    0.00001083    0.08498882
     atom    3 type  1   force =    -0.00001333   -0.00000000    0.08499051
     atom    4 type  1   force =     0.00000813    0.00000813   -0.08498725
     atom    5 type  1   force =     0.00000000    0.00000000   -0.08498848
     atom    6 type  1   force =    -0.00000000   -0.00001083    0.08498882
     atom    7 type  1   force =     0.00001083   -0.00000000    0.08498882
     atom    8 type  1   force =     0.00000813   -0.00000813   -0.08498725
     atom    9 type  1   force =     0.00000000    0.00000000   -0.08498848
     atom   10 type  1   force =     0.00000000   -0.00001333    0.08499051
     atom   11 type  1   force =     0.00001333    0.00000000    0.08499051
     atom   12 type  1   force =    -0.00000813    0.00000813   -0.08498725
     atom   13 type  1   force =     0.00000000    0.00000000   -0.08499560
     atom   14 type  1   force =    -0.00000000    0.00001333    0.08499051
     atom   15 type  1   force =    -0.00001083    0.00000000    0.08498882
     atom   16 type  1   force =    -0.00000813   -0.00000813   -0.08498725
     The ionic contribution  to forces
     atom    1 type  1   force =     0.00000000   -0.00000000  -77.67486003
     atom    2 type  1   force =    -0.00000000    0.00206213   77.67329637
     atom    3 type  1   force =    -0.00117848    0.00000000   77.67433530
     atom    4 type  1   force =     0.00108345    0.00108345  -77.67280960
     atom    5 type  1   force =     0.00000000    0.00000000  -77.67565477
     atom    6 type  1   force =    -0.00000000   -0.00206213   77.67329637
     atom    7 type  1   force =     0.00206213   -0.00000000   77.67329637
     atom    8 type  1   force =     0.00108345   -0.00108345  -77.67280960
     atom    9 type  1   force =     0.00000000    0.00000000  -77.67565477
     atom   10 type  1   force =     0.00000000   -0.00117848   77.67433530
     atom   11 type  1   force =     0.00117848    0.00000000   77.67433530
     atom   12 type  1   force =    -0.00108345    0.00108345  -77.67280960
     atom   13 type  1   force =    -0.00000000   -0.00000000  -77.67311870
     atom   14 type  1   force =    -0.00000000    0.00117848   77.67433530
     atom   15 type  1   force =    -0.00206213    0.00000000   77.67329637
     atom   16 type  1   force =    -0.00108345   -0.00108345  -77.67280960
     The local contribution  to forces
     atom    1 type  1   force =    -0.00000000   -0.00000000   77.73177512
     atom    2 type  1   force =     0.00000000   -0.00204235  -77.73023036
     atom    3 type  1   force =     0.00121295   -0.00000000  -77.73131092
     atom    4 type  1   force =    -0.00110124   -0.00110124   77.72977623
     atom    5 type  1   force =    -0.00000000    0.00000000   77.73262920
     atom    6 type  1   force =     0.00000000    0.00204235  -77.73023036
     atom    7 type  1   force =    -0.00204235    0.00000000  -77.73023036
     atom    8 type  1   force =    -0.00110124    0.00110124   77.72977623
     atom    9 type  1   force =     0.00000000   -0.00000000   77.73262920
     atom   10 type  1   force =     0.00000000    0.00121295  -77.73131092
     atom   11 type  1   force =    -0.00121295   -0.00000000  -77.73131092
     atom   12 type  1   force =     0.00110124   -0.00110124   77.72977623
     atom   13 type  1   force =     0.00000000    0.00000000   77.73015622
     atom   14 type  1   force =     0.00000000   -0.00121295  -77.73131092
     atom   15 type  1   force =     0.00204235    0.00000000  -77.73023036
     atom   16 type  1   force =     0.00110124    0.00110124   77.72977623
     The core correction contribution to forces
     atom    1 type  1   force =     0.00000000    0.00000000    0.02804021
     atom    2 type  1   force =     0.00000000   -0.00000104   -0.02803746
     atom    3 type  1   force =     0.00000119    0.00000000   -0.02803741
     atom    4 type  1   force =    -0.00000006   -0.00000006    0.02804028
     atom    5 type  1   force =     0.00000000   -0.00000000    0.02804131
     atom    6 type  1   force =     0.00000000    0.00000104   -0.02803746
     atom    7 type  1   force =    -0.00000104    0.00000000   -0.02803746
     atom    8 type  1   force =    -0.00000006    0.00000006    0.02804028
     atom    9 type  1   force =    -0.00000000    0.00000000    0.02804131
     atom   10 type  1   force =    -0.00000000    0.00000119   -0.02803741
     atom   11 type  1   force =    -0.00000119    0.00000000   -0.02803741
     atom   12 type  1   force =     0.00000006   -0.00000006    0.02804028
     atom   13 type  1   force =     0.00000000    0.00000000    0.02803974
     atom   14 type  1   force =     0.00000000   -0.00000119   -0.02803741
     atom   15 type  1   force =     0.00000104    0.00000000   -0.02803746
     atom   16 type  1   force =     0.00000006    0.00000006    0.02804028
     The Hubbard contrib.    to forces
     atom    1 type  1   force =     0.00000000    0.00000000    0.00000000
     atom    2 type  1   force =     0.00000000    0.00000000    0.00000000
     atom    3 type  1   force =     0.00000000    0.00000000    0.00000000
     atom    4 type  1   force =     0.00000000    0.00000000    0.00000000
     atom    5 type  1   force =     0.00000000    0.00000000    0.00000000
     atom    6 type  1   force =     0.00000000    0.00000000    0.00000000
     atom    7 type  1   force =     0.00000000    0.00000000    0.00000000
     atom    8 type  1   force =     0.00000000    0.00000000    0.00000000
     atom    9 type  1   force =     0.00000000    0.00000000    0.00000000
     atom   10 type  1   force =     0.00000000    0.00000000    0.00000000
     atom   11 type  1   force =     0.00000000    0.00000000    0.00000000
     atom   12 type  1   force =     0.00000000    0.00000000    0.00000000
     atom   13 type  1   force =     0.00000000    0.00000000    0.00000000
     atom   14 type  1   force =     0.00000000    0.00000000    0.00000000
     atom   15 type  1   force =     0.00000000    0.00000000    0.00000000
     atom   16 type  1   force =     0.00000000    0.00000000    0.00000000
     The SCF correction term to forces
     atom    1 type  1   force =    -0.00000000    0.00000000    0.00003866
     atom    2 type  1   force =    -0.00000000   -0.00002404   -0.00002128
     atom    3 type  1   force =    -0.00003002    0.00000000    0.00002219
     atom    4 type  1   force =     0.00001491    0.00001491   -0.00001554
     atom    5 type  1   force =    -0.00000000    0.00000000   -0.00001954
     atom    6 type  1   force =    -0.00000000    0.00002404   -0.00002128
     atom    7 type  1   force =    -0.00002404    0.00000000   -0.00002128
     atom    8 type  1   force =     0.00001491   -0.00001491   -0.00001554
     atom    9 type  1   force =    -0.00000000   -0.00000000   -0.00001954
     atom   10 type  1   force =    -0.00000000   -0.00003002    0.00002219
     atom   11 type  1   force =     0.00003002    0.00000000    0.00002219
     atom   12 type  1   force =    -0.00001491    0.00001491   -0.00001554
     atom   13 type  1   force =    -0.00000000    0.00000000   -0.00006392
     atom   14 type  1   force =     0.00000000    0.00003002    0.00002219
     atom   15 type  1   force =     0.00002404    0.00000000   -0.00002128
     atom   16 type  1   force =    -0.00001491   -0.00001491   -0.00001554

     Total force =     0.000039     Total SCF correction =     0.000137
     SCF correction compared to forces is large: reduce conv_thr to get better values


     Computing stress (Cartesian axis) and pressure


     negative rho (up, down):  2.833E+00 0.000E+00
          total   stress  (Ry/bohr**3)                   (kbar)     P=      -49.20
  -0.00045504   0.00000000   0.00000000          -66.94        0.00        0.00
   0.00000000  -0.00045504   0.00000000            0.00      -66.94        0.00
   0.00000000   0.00000000  -0.00009335            0.00        0.00      -13.73

     kinetic stress (kbar)  14904.95      0.00      0.00
                                0.00  14904.95      0.00
                                0.00      0.00  15151.61

     local   stress (kbar)-212741.08     -0.00      0.00
                               -0.00-212741.08      0.00
                                0.00      0.00 223056.86

     nonloc. stress (kbar)   -114.99      0.00      0.00
                                0.00   -114.99      0.00
                                0.00      0.00    -60.71

     hartree stress (kbar) 108926.28     -0.00     -0.00
                               -0.00 108926.28      0.00
                               -0.00      0.00-101337.93

     exc-cor stress (kbar)  11031.50     -0.00      0.00
                               -0.00  11031.50     -0.00
                                0.00     -0.00  11023.54

     corecor stress (kbar) -15198.18     -0.00      0.00
                               -0.00 -15198.18     -0.00
                                0.00     -0.00 -15204.62

     ewald   stress (kbar)  93124.58     -0.00     -0.00
                               -0.00  93124.58      0.00
                               -0.00      0.00-132642.49

     hubbard stress (kbar)      0.00      0.00      0.00
                                0.00      0.00      0.00
                                0.00      0.00      0.00

     DFT-D   stress (kbar)      0.00      0.00      0.00
                                0.00      0.00      0.00
                                0.00      0.00      0.00

     XDM     stress (kbar)      0.00      0.00      0.00
                                0.00      0.00      0.00
                                0.00      0.00      0.00

     dft-nl  stress (kbar)      0.00      0.00      0.00
                                0.00      0.00      0.00
                                0.00      0.00      0.00

     TS-vdW  stress (kbar)      0.00      0.00      0.00
                                0.00      0.00      0.00
                                0.00      0.00      0.00


     Energy error            =      1.2E-06
     Gradient error          =      2.1E-05

     bfgs converged in   5 scf cycles and   4 bfgs steps
     (criteria: energy <  1.0E-04 Ry, force <  1.0E-03 Ry/Bohr)

     End of BFGS Geometry Optimization

     Final energy   =   -3369.9746234559 Ry

     File ./surface.bfgs deleted, as requested
Begin final coordinates

ATOMIC_POSITIONS (angstrom)
Pt            0.0000000000        0.0000000000        0.0538550921
Pt            3.9767700000        1.9883581515        1.9344907166
Pt            1.9884023653        0.0000000000        1.9344966027
Pt            1.9883632013        1.9883632013        0.0539099513
Pt            0.0000000000        3.9767700000        0.0538722235
Pt            3.9767700000        5.9651818485        1.9344907166
Pt            1.9883581515        3.9767700000        1.9344907166
Pt            1.9883632013        5.9651767987        0.0539099513
Pt            3.9767700000        0.0000000000        0.0538722235
Pt            7.9535400000        1.9884023653        1.9344966027
Pt            5.9651376347       -0.0000000000        1.9344966027
Pt            5.9651767987        1.9883632013        0.0539099513
Pt            3.9767700000        3.9767700000        0.0538913783
Pt            7.9535400000        5.9651376347        1.9344966027
Pt            5.9651818485        3.9767700000        1.9344907166
Pt            5.9651767987        5.9651767987        0.0539099513
End final coordinates



     Writing output data file ./surface.save/

     init_run     :      2.41s CPU      2.53s WALL (       1 calls)
     electrons    :    266.00s CPU    273.29s WALL (       5 calls)
     update_pot   :      1.09s CPU      1.10s WALL (       4 calls)
     forces       :      6.05s CPU      6.25s WALL (       5 calls)
     stress       :     16.49s CPU     16.81s WALL (       5 calls)

     Called by init_run:
     wfcinit      :      1.81s CPU      1.85s WALL (       1 calls)
     wfcinit:atom :      0.01s CPU      0.01s WALL (      15 calls)
     wfcinit:wfcr :      1.70s CPU      1.74s WALL (      15 calls)
     potinit      :      0.11s CPU      0.12s WALL (       1 calls)
     hinit0       :      0.20s CPU      0.22s WALL (       1 calls)

     Called by electrons:
     c_bands      :    227.26s CPU    230.66s WALL (      53 calls)
     sum_band     :     32.97s CPU     35.10s WALL (      53 calls)
     v_of_rho     :      1.82s CPU      1.87s WALL (      57 calls)
     v_h          :      0.14s CPU      0.14s WALL (      57 calls)
     v_xc         :      1.99s CPU      2.03s WALL (      67 calls)
     newd         :      3.95s CPU      5.37s WALL (      57 calls)
     mix_rho      :      0.19s CPU      0.20s WALL (      53 calls)

     Called by c_bands:
     init_us_2    :      1.81s CPU      1.84s WALL (    1755 calls)
     cegterg      :    221.16s CPU    224.40s WALL (     795 calls)

     Called by sum_band:
     sum_band:wei :      0.06s CPU      0.06s WALL (      53 calls)
     sum_band:loo :     27.69s CPU     28.08s WALL (      53 calls)
     sum_band:buf :      0.45s CPU      0.47s WALL (     795 calls)
     sum_band:ini :      0.86s CPU      0.87s WALL (     795 calls)
     sum_band:cal :      7.82s CPU      7.87s WALL (     795 calls)
     sum_band:bec :      0.32s CPU      0.32s WALL (     795 calls)
     addusdens    :      4.29s CPU      6.01s WALL (      53 calls)
     addusd:skk   :      0.09s CPU      0.11s WALL (      53 calls)
     addusd:dgemm :      1.78s CPU      3.44s WALL (      53 calls)
     addusd:qvan2 :      1.98s CPU      1.99s WALL (      53 calls)

     Called by *egterg:
     cdiaghg      :     36.83s CPU     37.06s WALL (    2427 calls)
     cegterg:over :     19.59s CPU     19.72s WALL (    1707 calls)
     cegterg:upda :     10.88s CPU     11.05s WALL (    1707 calls)
     cegterg:last :     20.98s CPU     21.10s WALL (    1307 calls)
     cdiaghg:chol :      1.65s CPU      1.67s WALL (    2427 calls)
     cdiaghg:inve :      1.62s CPU      1.63s WALL (    2427 calls)
     cdiaghg:para :      4.33s CPU      4.36s WALL (    4854 calls)
     h_psi        :    113.87s CPU    115.83s WALL (    2517 calls)
     s_psi        :     11.60s CPU     11.70s WALL (    2517 calls)
     g_psi        :      0.26s CPU      0.27s WALL (    1707 calls)

     Called by h_psi:
     h_psi:calbec :     20.15s CPU     20.27s WALL (    2517 calls)
     vloc_psi     :     80.90s CPU     82.43s WALL (    2517 calls)
     add_vuspsi   :     12.21s CPU     12.36s WALL (    2517 calls)

     General routines
     calbec       :     32.09s CPU     32.29s WALL (    3687 calls)
     fft          :      1.52s CPU      1.55s WALL (     861 calls)
     ffts         :      0.05s CPU      0.05s WALL (     110 calls)
     fftw         :     93.44s CPU     95.16s WALL (  701892 calls)
     interpolate  :      0.13s CPU      0.13s WALL (      57 calls)

     Parallel routines
     fft_scatt_xy :      6.04s CPU      6.14s WALL (  702863 calls)
     fft_scatt_yz :     39.88s CPU     40.68s WALL (  702863 calls)

     PWSCF        :   4m53.24s CPU   5m 3.47s WALL


   This run was terminated on:   0:29:50   6Dec2021            

=------------------------------------------------------------------------------=
   JOB DONE.
=------------------------------------------------------------------------------=
