
     Program PWSCF v.6.7MaX starts on 10Dec2021 at  2:47: 8 

     This program is part of the open-source Quantum ESPRESSO suite
     for quantum simulation of materials; please cite
         "P. Giannozzi et al., J. Phys.:Condens. Matter 21 395502 (2009);
         "P. Giannozzi et al., J. Phys.:Condens. Matter 29 465901 (2017);
          URL http://www.quantum-espresso.org", 
     in publications or presentations arising from this work. More details at
     http://www.quantum-espresso.org/quote

     Parallel version (MPI), running on    64 processors

     MPI processes distributed on     1 nodes
     R & G space division:  proc/nbgrp/npool/nimage =      64
     Reading input from ag_surface.100.qe.7655860.2_2_3.in

     Current dimensions of program PWSCF are:
     Max number of different atomic species (ntypx) = 10
     Max number of k-points (npk) =  40000
     Max angular momentum in pseudopotentials (lmaxx) =  3

     Subspace diagonalization in iterative solution of the eigenvalue problem:
     one sub-group per band group will be used
     scalapack distributed-memory algorithm (size of sub-group:  8*  8 procs)

     Found symmetry operation: I + (  0.0000 -0.5000  0.0000)
     This is a supercell, fractional translations are disabled

     Parallelization info
     --------------------
     sticks:   dense  smooth     PW     G-vecs:    dense   smooth      PW
     Min          92      36     10                14400     3628     524
     Max          93      37     11                14413     3651     535
     Sum        5909    2361    657               921831   233101   33869



     bravais-lattice index     =            8
     lattice parameter (alat)  =      15.7246  a.u.
     unit-cell volume          =   10504.7632 (a.u.)^3
     number of atoms/cell      =           48
     number of atomic types    =            1
     number of electrons       =       912.00
     number of Kohn-Sham states=          547
     kinetic-energy cutoff     =      30.0000  Ry
     charge density cutoff     =     300.0000  Ry
     scf convergence threshold =      1.0E-06
     mixing beta               =       0.3000
     number of iterations used =            8  plain     mixing
     energy convergence thresh.=      1.0E-04
     force convergence thresh. =      1.0E-03
     Exchange-correlation=  SLA  PW   PBX  PBC
                           (   1   4   3   4   0   0   0)
     nstep                     =           50


     celldm(1)=  15.724600  celldm(2)=   1.000000  celldm(3)=   2.701764
     celldm(4)=   0.000000  celldm(5)=   0.000000  celldm(6)=   0.000000

     crystal axes: (cart. coord. in units of alat)
               a(1) = (   1.000000   0.000000   0.000000 )  
               a(2) = (   0.000000   1.000000   0.000000 )  
               a(3) = (   0.000000   0.000000   2.701764 )  

     reciprocal axes: (cart. coord. in units 2 pi/alat)
               b(1) = (  1.000000  0.000000  0.000000 )  
               b(2) = (  0.000000  1.000000  0.000000 )  
               b(3) = (  0.000000  0.000000  0.370129 )  


     PseudoPot. # 1 for Ag read from file:
     /expanse/lustre/projects/csd622/tpascal/nano110/qe/pseudo/ag_pbe_v1.4.uspp.F.UPF
     MD5 check sum: d66d668201baa78d5eb5b04ef7011058
     Pseudo is Ultrasoft + core correction, Zval = 19.0
     Generated by new atomic code, or converted to UPF format
     Using radial grid of  887 points,  6 beta functions with: 
                l(1) =   0
                l(2) =   0
                l(3) =   1
                l(4) =   1
                l(5) =   2
                l(6) =   2
     Q(r) pseudized with  6 coefficients,  rinner =    1.300   1.300   1.300
                                                       1.300   1.300

     atomic species   valence    mass     pseudopotential
        Ag            19.00   107.86820     Ag( 1.00)

      8 Sym. Ops. (no inversion) found


                                    s                        frac. trans.

      isym =  1     identity                                     

 cryst.   s( 1) = (     1          0          0      )
                  (     0          1          0      )
                  (     0          0          1      )

 cart.    s( 1) = (  1.0000000  0.0000000  0.0000000 )
                  (  0.0000000  1.0000000  0.0000000 )
                  (  0.0000000  0.0000000  1.0000000 )


      isym =  2     180 deg rotation - cart. axis [0,0,1]        

 cryst.   s( 2) = (    -1          0          0      )
                  (     0         -1          0      )
                  (     0          0          1      )

 cart.    s( 2) = ( -1.0000000  0.0000000  0.0000000 )
                  (  0.0000000 -1.0000000  0.0000000 )
                  (  0.0000000  0.0000000  1.0000000 )


      isym =  3      90 deg rotation - cart. axis [0,0,-1]       

 cryst.   s( 3) = (     0         -1          0      )
                  (     1          0          0      )
                  (     0          0          1      )

 cart.    s( 3) = (  0.0000000  1.0000000  0.0000000 )
                  ( -1.0000000  0.0000000  0.0000000 )
                  (  0.0000000  0.0000000  1.0000000 )


      isym =  4      90 deg rotation - cart. axis [0,0,1]        

 cryst.   s( 4) = (     0          1          0      )
                  (    -1          0          0      )
                  (     0          0          1      )

 cart.    s( 4) = (  0.0000000 -1.0000000  0.0000000 )
                  (  1.0000000  0.0000000  0.0000000 )
                  (  0.0000000  0.0000000  1.0000000 )


      isym =  5     inv. 180 deg rotation - cart. axis [0,1,0]   

 cryst.   s( 5) = (     1          0          0      )
                  (     0         -1          0      )
                  (     0          0          1      )

 cart.    s( 5) = (  1.0000000  0.0000000  0.0000000 )
                  (  0.0000000 -1.0000000  0.0000000 )
                  (  0.0000000  0.0000000  1.0000000 )


      isym =  6     inv. 180 deg rotation - cart. axis [1,0,0]   

 cryst.   s( 6) = (    -1          0          0      )
                  (     0          1          0      )
                  (     0          0          1      )

 cart.    s( 6) = ( -1.0000000  0.0000000  0.0000000 )
                  (  0.0000000  1.0000000  0.0000000 )
                  (  0.0000000  0.0000000  1.0000000 )


      isym =  7     inv. 180 deg rotation - cart. axis [1,1,0]   

 cryst.   s( 7) = (     0         -1          0      )
                  (    -1          0          0      )
                  (     0          0          1      )

 cart.    s( 7) = (  0.0000000 -1.0000000  0.0000000 )
                  ( -1.0000000  0.0000000  0.0000000 )
                  (  0.0000000  0.0000000  1.0000000 )


      isym =  8     inv. 180 deg rotation - cart. axis [1,-1,0]  

 cryst.   s( 8) = (     0          1          0      )
                  (     1          0          0      )
                  (     0          0          1      )

 cart.    s( 8) = (  0.0000000  1.0000000  0.0000000 )
                  (  1.0000000  0.0000000  0.0000000 )
                  (  0.0000000  0.0000000  1.0000000 )


     point group C_4v (4mm) 
     there are  5 classes
     the character table:

       E     2C4   C2    2s_v  2s_d 
A_1    1.00  1.00  1.00  1.00  1.00
A_2    1.00  1.00  1.00 -1.00 -1.00
B_1    1.00 -1.00  1.00  1.00 -1.00
B_2    1.00 -1.00  1.00 -1.00  1.00
E      2.00  0.00 -2.00  0.00  0.00

     the symmetry operations in each class and the name of the first element:

     E        1
          identity                                               
     2C4      3    4
           90 deg rotation - cart. axis [0,0,-1]                 
     C2       2
          180 deg rotation - cart. axis [0,0,1]                  
     2s_v     5    6
          inv. 180 deg rotation - cart. axis [0,1,0]             
     2s_d     7    8
          inv. 180 deg rotation - cart. axis [1,1,0]             

   Cartesian axes

     site n.     atom                  positions (alat units)
         1           Ag  tau(   1) = (   0.0000000   0.0000000   0.0000000  )
         2           Ag  tau(   2) = (   0.0000000   0.0000000   0.5000000  )
         3           Ag  tau(   3) = (   0.0000000   0.0000000   1.0000000  )
         4           Ag  tau(   4) = (   0.0000000   0.5000000   0.0000000  )
         5           Ag  tau(   5) = (   0.0000000   0.5000000   0.5000000  )
         6           Ag  tau(   6) = (   0.0000000   0.5000000   1.0000000  )
         7           Ag  tau(   7) = (   0.5000000   0.0000000   0.0000000  )
         8           Ag  tau(   8) = (   0.5000000   0.0000000   0.5000000  )
         9           Ag  tau(   9) = (   0.5000000   0.0000000   1.0000000  )
        10           Ag  tau(  10) = (   0.5000000   0.5000000   0.0000000  )
        11           Ag  tau(  11) = (   0.5000000   0.5000000   0.5000000  )
        12           Ag  tau(  12) = (   0.5000000   0.5000000   1.0000000  )
        13           Ag  tau(  13) = (   0.0000000   0.2500000   0.2500000  )
        14           Ag  tau(  14) = (   0.0000000   0.2500000   0.7500000  )
        15           Ag  tau(  15) = (   0.0000000   0.2500000   1.2500000  )
        16           Ag  tau(  16) = (   0.0000000   0.7500000   0.2500000  )
        17           Ag  tau(  17) = (   0.0000000   0.7500000   0.7500000  )
        18           Ag  tau(  18) = (   0.0000000   0.7500000   1.2500000  )
        19           Ag  tau(  19) = (   0.5000000   0.2500000   0.2500000  )
        20           Ag  tau(  20) = (   0.5000000   0.2500000   0.7500000  )
        21           Ag  tau(  21) = (   0.5000000   0.2500000   1.2500000  )
        22           Ag  tau(  22) = (   0.5000000   0.7500000   0.2500000  )
        23           Ag  tau(  23) = (   0.5000000   0.7500000   0.7500000  )
        24           Ag  tau(  24) = (   0.5000000   0.7500000   1.2500000  )
        25           Ag  tau(  25) = (   0.2500000   0.0000000   0.2500000  )
        26           Ag  tau(  26) = (   0.2500000   0.0000000   0.7500000  )
        27           Ag  tau(  27) = (   0.2500000   0.0000000   1.2500000  )
        28           Ag  tau(  28) = (   0.2500000   0.5000000   0.2500000  )
        29           Ag  tau(  29) = (   0.2500000   0.5000000   0.7500000  )
        30           Ag  tau(  30) = (   0.2500000   0.5000000   1.2500000  )
        31           Ag  tau(  31) = (   0.7500000   0.0000000   0.2500000  )
        32           Ag  tau(  32) = (   0.7500000   0.0000000   0.7500000  )
        33           Ag  tau(  33) = (   0.7500000   0.0000000   1.2500000  )
        34           Ag  tau(  34) = (   0.7500000   0.5000000   0.2500000  )
        35           Ag  tau(  35) = (   0.7500000   0.5000000   0.7500000  )
        36           Ag  tau(  36) = (   0.7500000   0.5000000   1.2500000  )
        37           Ag  tau(  37) = (   0.2500000   0.2500000   0.0000000  )
        38           Ag  tau(  38) = (   0.2500000   0.2500000   0.5000000  )
        39           Ag  tau(  39) = (   0.2500000   0.2500000   1.0000000  )
        40           Ag  tau(  40) = (   0.2500000   0.7500000   0.0000000  )
        41           Ag  tau(  41) = (   0.2500000   0.7500000   0.5000000  )
        42           Ag  tau(  42) = (   0.2500000   0.7500000   1.0000000  )
        43           Ag  tau(  43) = (   0.7500000   0.2500000   0.0000000  )
        44           Ag  tau(  44) = (   0.7500000   0.2500000   0.5000000  )
        45           Ag  tau(  45) = (   0.7500000   0.2500000   1.0000000  )
        46           Ag  tau(  46) = (   0.7500000   0.7500000   0.0000000  )
        47           Ag  tau(  47) = (   0.7500000   0.7500000   0.5000000  )
        48           Ag  tau(  48) = (   0.7500000   0.7500000   1.0000000  )

   Crystallographic axes

     site n.     atom                  positions (cryst. coord.)
         1           Ag  tau(   1) = (  0.0000000  0.0000000  0.0000000  )
         2           Ag  tau(   2) = (  0.0000000  0.0000000  0.1850643  )
         3           Ag  tau(   3) = (  0.0000000  0.0000000  0.3701285  )
         4           Ag  tau(   4) = (  0.0000000  0.5000000  0.0000000  )
         5           Ag  tau(   5) = (  0.0000000  0.5000000  0.1850643  )
         6           Ag  tau(   6) = (  0.0000000  0.5000000  0.3701285  )
         7           Ag  tau(   7) = (  0.5000000  0.0000000  0.0000000  )
         8           Ag  tau(   8) = (  0.5000000  0.0000000  0.1850643  )
         9           Ag  tau(   9) = (  0.5000000  0.0000000  0.3701285  )
        10           Ag  tau(  10) = (  0.5000000  0.5000000  0.0000000  )
        11           Ag  tau(  11) = (  0.5000000  0.5000000  0.1850643  )
        12           Ag  tau(  12) = (  0.5000000  0.5000000  0.3701285  )
        13           Ag  tau(  13) = (  0.0000000  0.2500000  0.0925321  )
        14           Ag  tau(  14) = (  0.0000000  0.2500000  0.2775964  )
        15           Ag  tau(  15) = (  0.0000000  0.2500000  0.4626607  )
        16           Ag  tau(  16) = (  0.0000000  0.7500000  0.0925321  )
        17           Ag  tau(  17) = (  0.0000000  0.7500000  0.2775964  )
        18           Ag  tau(  18) = (  0.0000000  0.7500000  0.4626607  )
        19           Ag  tau(  19) = (  0.5000000  0.2500000  0.0925321  )
        20           Ag  tau(  20) = (  0.5000000  0.2500000  0.2775964  )
        21           Ag  tau(  21) = (  0.5000000  0.2500000  0.4626607  )
        22           Ag  tau(  22) = (  0.5000000  0.7500000  0.0925321  )
        23           Ag  tau(  23) = (  0.5000000  0.7500000  0.2775964  )
        24           Ag  tau(  24) = (  0.5000000  0.7500000  0.4626607  )
        25           Ag  tau(  25) = (  0.2500000  0.0000000  0.0925321  )
        26           Ag  tau(  26) = (  0.2500000  0.0000000  0.2775964  )
        27           Ag  tau(  27) = (  0.2500000  0.0000000  0.4626607  )
        28           Ag  tau(  28) = (  0.2500000  0.5000000  0.0925321  )
        29           Ag  tau(  29) = (  0.2500000  0.5000000  0.2775964  )
        30           Ag  tau(  30) = (  0.2500000  0.5000000  0.4626607  )
        31           Ag  tau(  31) = (  0.7500000  0.0000000  0.0925321  )
        32           Ag  tau(  32) = (  0.7500000  0.0000000  0.2775964  )
        33           Ag  tau(  33) = (  0.7500000  0.0000000  0.4626607  )
        34           Ag  tau(  34) = (  0.7500000  0.5000000  0.0925321  )
        35           Ag  tau(  35) = (  0.7500000  0.5000000  0.2775964  )
        36           Ag  tau(  36) = (  0.7500000  0.5000000  0.4626607  )
        37           Ag  tau(  37) = (  0.2500000  0.2500000  0.0000000  )
        38           Ag  tau(  38) = (  0.2500000  0.2500000  0.1850643  )
        39           Ag  tau(  39) = (  0.2500000  0.2500000  0.3701285  )
        40           Ag  tau(  40) = (  0.2500000  0.7500000  0.0000000  )
        41           Ag  tau(  41) = (  0.2500000  0.7500000  0.1850643  )
        42           Ag  tau(  42) = (  0.2500000  0.7500000  0.3701285  )
        43           Ag  tau(  43) = (  0.7500000  0.2500000  0.0000000  )
        44           Ag  tau(  44) = (  0.7500000  0.2500000  0.1850643  )
        45           Ag  tau(  45) = (  0.7500000  0.2500000  0.3701285  )
        46           Ag  tau(  46) = (  0.7500000  0.7500000  0.0000000  )
        47           Ag  tau(  47) = (  0.7500000  0.7500000  0.1850643  )
        48           Ag  tau(  48) = (  0.7500000  0.7500000  0.3701285  )

     number of k points=     6  Gaussian smearing, width (Ry)=  0.0030
                       cart. coord. in units 2pi/alat
        k(    1) = (   0.0000000   0.0000000   0.0000000), wk =   0.1250000
        k(    2) = (   0.0000000   0.2500000   0.0000000), wk =   0.5000000
        k(    3) = (   0.0000000  -0.5000000   0.0000000), wk =   0.2500000
        k(    4) = (   0.2500000   0.2500000   0.0000000), wk =   0.5000000
        k(    5) = (   0.2500000  -0.5000000   0.0000000), wk =   0.5000000
        k(    6) = (  -0.5000000  -0.5000000   0.0000000), wk =   0.1250000

                       cryst. coord.
        k(    1) = (   0.0000000   0.0000000   0.0000000), wk =   0.1250000
        k(    2) = (   0.0000000   0.2500000   0.0000000), wk =   0.5000000
        k(    3) = (   0.0000000  -0.5000000   0.0000000), wk =   0.2500000
        k(    4) = (   0.2500000   0.2500000   0.0000000), wk =   0.5000000
        k(    5) = (   0.2500000  -0.5000000   0.0000000), wk =   0.5000000
        k(    6) = (  -0.5000000  -0.5000000   0.0000000), wk =   0.1250000

     Dense  grid:   921831 G-vectors     FFT dimensions: (  90,  90, 240)

     Smooth grid:   233101 G-vectors     FFT dimensions: (  60,  60, 150)

     Dynamical RAM for                 wfc:       3.80 MB

     Dynamical RAM for     wfc (w. buffer):      26.58 MB

     Dynamical RAM for           str. fact:       0.22 MB

     Dynamical RAM for           local pot:       0.00 MB

     Dynamical RAM for          nlocal pot:       6.00 MB

     Dynamical RAM for                qrad:       1.39 MB

     Dynamical RAM for          rho,v,vnew:       1.40 MB

     Dynamical RAM for               rhoin:       0.47 MB

     Dynamical RAM for            rho*nmix:       3.52 MB

     Dynamical RAM for           G-vectors:       0.85 MB

     Dynamical RAM for          h,s,v(r/c):       0.85 MB

     Dynamical RAM for          <psi|beta>:       7.21 MB

     Dynamical RAM for                 psi:       7.60 MB

     Dynamical RAM for                hpsi:       7.60 MB

     Dynamical RAM for                spsi:       7.60 MB

     Dynamical RAM for      wfcinit/wfcrot:      17.58 MB

     Dynamical RAM for           addusdens:      51.44 MB

     Dynamical RAM for          addusforce:      72.40 MB

     Dynamical RAM for         addusstress:      44.19 MB

     Estimated static dynamical RAM per process >      42.11 MB

     Estimated max dynamical RAM per process >     114.51 MB

     Estimated total dynamical RAM >       7.16 GB

     Initial potential from superposition of free atoms

     starting charge  887.99773, renormalised to  912.00000

     negative rho (up, down):  6.842E-03 0.000E+00
     Starting wfcs are  624 randomized atomic wfcs

     total cpu time spent up to now is        5.8 secs

     Self-consistent Calculation

     iteration #  1     ecut=    30.00 Ry     beta= 0.30
     Davidson diagonalization with overlap
     ethr =  1.00E-02,  avg # of iterations =  6.3

     total cpu time spent up to now is       28.7 secs

     total energy              =  -14172.44962709 Ry
     estimated scf accuracy    <      75.13319704 Ry

     iteration #  2     ecut=    30.00 Ry     beta= 0.30
     Davidson diagonalization with overlap
     ethr =  8.24E-03,  avg # of iterations =  4.8

     total cpu time spent up to now is       48.7 secs

     total energy              =  -14165.65598734 Ry
     estimated scf accuracy    <     172.26215629 Ry

     iteration #  3     ecut=    30.00 Ry     beta= 0.30
     Davidson diagonalization with overlap
     ethr =  8.24E-03,  avg # of iterations =  4.3

     negative rho (up, down):  1.398E-07 0.000E+00

     total cpu time spent up to now is       64.8 secs

     total energy              =  -14181.62643332 Ry
     estimated scf accuracy    <     100.81396465 Ry

     iteration #  4     ecut=    30.00 Ry     beta= 0.30
     Davidson diagonalization with overlap
     ethr =  8.24E-03,  avg # of iterations =  2.0

     negative rho (up, down):  3.739E-07 0.000E+00

     total cpu time spent up to now is       78.5 secs

     total energy              =  -14188.86819707 Ry
     estimated scf accuracy    <       3.59988755 Ry

     iteration #  5     ecut=    30.00 Ry     beta= 0.30
     Davidson diagonalization with overlap
     ethr =  3.95E-04,  avg # of iterations =  6.7

     negative rho (up, down):  7.183E-06 0.000E+00

     total cpu time spent up to now is       95.5 secs

     total energy              =  -14188.86022118 Ry
     estimated scf accuracy    <       0.66202531 Ry

     iteration #  6     ecut=    30.00 Ry     beta= 0.30
     Davidson diagonalization with overlap
     ethr =  7.26E-05,  avg # of iterations =  8.7

     negative rho (up, down):  3.418E-05 0.000E+00

     total cpu time spent up to now is      118.2 secs

     total energy              =  -14188.83744784 Ry
     estimated scf accuracy    <       4.12053804 Ry

     iteration #  7     ecut=    30.00 Ry     beta= 0.30
     Davidson diagonalization with overlap
     ethr =  7.26E-05,  avg # of iterations =  6.2

     negative rho (up, down):  2.956E-04 0.000E+00

     total cpu time spent up to now is      134.7 secs

     total energy              =  -14188.95907309 Ry
     estimated scf accuracy    <       0.10405186 Ry

     iteration #  8     ecut=    30.00 Ry     beta= 0.30
     Davidson diagonalization with overlap
     ethr =  1.14E-05,  avg # of iterations =  5.5

     negative rho (up, down):  1.225E-03 0.000E+00

     total cpu time spent up to now is      153.4 secs

     total energy              =  -14188.97709106 Ry
     estimated scf accuracy    <       0.01053510 Ry

     iteration #  9     ecut=    30.00 Ry     beta= 0.30
     Davidson diagonalization with overlap
     ethr =  1.16E-06,  avg # of iterations =  8.5

     negative rho (up, down):  3.087E-03 0.000E+00

     total cpu time spent up to now is      171.3 secs

     total energy              =  -14188.97587769 Ry
     estimated scf accuracy    <       0.00659195 Ry

     iteration # 10     ecut=    30.00 Ry     beta= 0.30
     Davidson diagonalization with overlap
     ethr =  7.23E-07,  avg # of iterations =  2.3

     negative rho (up, down):  4.385E-03 0.000E+00

     total cpu time spent up to now is      187.3 secs

     total energy              =  -14188.97732564 Ry
     estimated scf accuracy    <       0.00170156 Ry

     iteration # 11     ecut=    30.00 Ry     beta= 0.30
     Davidson diagonalization with overlap
     ethr =  1.87E-07,  avg # of iterations =  2.0

     negative rho (up, down):  5.351E-03 0.000E+00

     total cpu time spent up to now is      200.6 secs

     total energy              =  -14188.97735826 Ry
     estimated scf accuracy    <       0.00026651 Ry

     iteration # 12     ecut=    30.00 Ry     beta= 0.30
     Davidson diagonalization with overlap
     ethr =  2.92E-08,  avg # of iterations =  2.0

     negative rho (up, down):  5.586E-03 0.000E+00

     total cpu time spent up to now is      215.7 secs

     total energy              =  -14188.97740317 Ry
     estimated scf accuracy    <       0.00001490 Ry

     iteration # 13     ecut=    30.00 Ry     beta= 0.30
     Davidson diagonalization with overlap
     ethr =  1.63E-09,  avg # of iterations =  2.0

     negative rho (up, down):  5.622E-03 0.000E+00

     total cpu time spent up to now is      229.7 secs

     total energy              =  -14188.97740529 Ry
     estimated scf accuracy    <       0.00001234 Ry

     iteration # 14     ecut=    30.00 Ry     beta= 0.30
     Davidson diagonalization with overlap
     ethr =  1.35E-09,  avg # of iterations =  1.0

     negative rho (up, down):  5.717E-03 0.000E+00

     total cpu time spent up to now is      241.1 secs

     End of self-consistent calculation

          k = 0.0000 0.0000 0.0000 ( 29171 PWs)   bands (ev):

   -84.8077 -84.8077 -84.8029 -84.8029 -84.8029 -84.8029 -84.8029 -84.8029
   -84.8029 -84.8029 -84.8028 -84.8028 -84.8028 -84.8028 -84.7985 -84.7985
   -84.7631 -84.7568 -84.7568 -84.7568 -84.7568 -84.7548 -84.7548 -84.7547
   -84.7547 -84.7544 -84.7524 -84.7524 -84.7524 -84.7524 -84.7505 -84.7504
   -84.5404 -84.5402 -84.5360 -84.5360 -84.5360 -84.5360 -84.5360 -84.5360
   -84.5359 -84.5359 -84.5358 -84.5358 -84.5358 -84.5358 -84.5317 -84.5315
   -48.3151 -48.3151 -48.3151 -48.3151 -48.3093 -48.3093 -48.3049 -48.3049
   -48.2937 -48.2870 -48.2870 -48.2870 -48.2869 -48.2809 -48.2795 -48.2795
   -48.2795 -48.2795 -48.2793 -48.2793 -48.2793 -48.2793 -48.2740 -48.2740
   -48.2739 -48.2739 -48.2721 -48.2721 -48.2721 -48.2721 -48.2693 -48.2693
   -48.2693 -48.2693 -48.2689 -48.2689 -48.2689 -48.2689 -48.2568 -48.2568
   -48.2551 -48.2551 -48.2421 -48.2421 -48.2413 -48.2413 -48.2413 -48.2413
   -48.2408 -48.2408 -48.2407 -48.2407 -48.2405 -48.2405 -48.2320 -48.2320
   -48.2320 -48.2320 -48.2316 -48.2248 -48.2248 -48.2248 -48.2248 -48.2238
   -48.2238 -48.2130 -48.2129 -48.2115 -48.2115 -48.2115 -48.2115 -48.1974
   -48.1974 -48.1974 -48.1974 -48.1969 -48.1969 -48.1969 -48.1969 -48.1957
   -48.1957 -48.1957 -48.1957 -48.1940 -48.1940 -48.1867 -48.1867 -48.1867
   -48.1867 -48.1831 -48.1792 -48.1792 -48.1791 -48.1791 -48.1707 -48.1707
   -48.0458 -48.0458 -48.0457 -48.0456 -48.0422 -48.0422 -48.0420 -48.0420
   -48.0113 -48.0113 -48.0113 -48.0113 -48.0111 -48.0111 -48.0111 -48.0111
   -48.0107 -48.0107 -48.0107 -48.0107 -48.0105 -48.0105 -48.0105 -48.0105
   -47.9931 -47.9926 -47.9882 -47.9882 -47.9882 -47.9882 -47.9880 -47.9880
   -47.9880 -47.9880 -47.9880 -47.9880 -47.9879 -47.9879 -47.9851 -47.9850
   -47.9813 -47.9813 -47.9811 -47.9811 -47.9759 -47.9759 -47.9758 -47.9758
    -0.0569   0.5788   1.1110   1.1267   1.1267   1.1582   1.1582   1.1582
     1.1582   1.2041   1.2490   1.2490   1.2637   1.3989   1.4308   1.4309
     1.4883   1.4883   1.4883   1.4883   1.5535   1.5818   1.5818   1.5848
     1.5848   1.5848   1.5848   1.6855   1.7241   1.8003   1.8003   1.8003
     1.8003   1.8497   1.8497   1.8497   1.8497   1.8680   1.8681   1.9449
     1.9449   1.9449   1.9449   1.9887   1.9887   1.9887   1.9887   1.9923
     1.9924   1.9924   1.9924   2.0279   2.0279   2.0279   2.0279   2.0557
     2.0962   2.0962   2.0962   2.0962   2.1434   2.1434   2.1614   2.1614
     2.1614   2.1614   2.2257   2.2257   2.2257   2.2257   2.2757   2.2757
     2.2757   2.2757   2.2763   2.2763   2.2763   2.2763   2.2783   2.2783
     2.2783   2.2783   2.2932   2.3980   2.3980   2.3980   2.3980   2.4105
     2.4105   2.4105   2.4105   2.4503   2.4893   2.4893   2.4893   2.4893
     2.5277   2.5278   2.5278   2.5278   2.5665   2.5665   2.5665   2.5665
     2.5885   2.5885   2.6934   2.6934   2.6934   2.6934   2.6960   2.6960
     2.6960   2.6960   2.7972   2.7972   2.7973   2.7973   2.8342   2.8342
     2.8370   2.8370   2.8720   2.8720   2.8720   2.8720   2.9710   2.9710
     2.9710   2.9710   3.0810   3.0810   3.0810   3.0810   3.0819   3.0819
     3.0819   3.0819   3.1547   3.1547   3.1548   3.1548   3.2199   3.2199
     3.2199   3.2199   3.2357   3.2357   3.2409   3.2409   3.2409   3.2409
     3.2434   3.2805   3.3039   3.3039   3.3039   3.3039   3.3077   3.3077
     3.3077   3.3077   3.3695   3.3695   3.3695   3.3695   3.3886   3.4705
     3.4705   3.4705   3.4705   3.4817   3.4939   3.4939   3.4940   3.4940
     3.5155   3.5155   3.5155   3.5155   3.5502   3.5502   3.5874   3.5874
     3.5874   3.5874   3.5887   3.5934   3.5935   3.6369   3.6369   3.6369
     3.6369   3.6600   3.6600   3.6600   3.6600   3.6656   3.6656   3.6657
     3.6657   3.6772   3.6772   3.7836   3.8551   3.8551   3.9373   3.9373
     3.9374   3.9374   3.9811   3.9811   3.9811   3.9811   3.9825   3.9964
     3.9964   3.9964   3.9964   4.0394   4.0394   4.0585   4.0585   4.0586
     4.0586   4.0699   4.0700   4.1000   4.1174   4.1174   4.1174   4.1175
     4.1341   4.1341   4.1427   4.1917   4.2604   4.2604   4.2604   4.2604
     4.2810   4.2810   4.3166   4.3166   4.3769   4.3770   4.5467   4.5468
     4.7290   4.7290   4.7290   4.7290   5.7334   5.7334   5.7334   5.7334
     5.8570   6.5806   6.5806   6.5806   6.5806   6.7214   6.7214   6.7214
     6.7214   7.0591   7.0591   7.0591   7.0591   7.3083   7.3083   7.3084
     7.3084   7.5900   8.5648   8.7057   8.7057   8.7058   8.7058   9.1817
     9.1817   9.8057   9.8058   9.8059   9.8059  10.2830  10.2830  10.4835
    10.4835  10.4837  10.4837  10.8739  11.4698  11.4698  11.4698  11.4699
    11.6627  11.7896  11.7896  11.9268  11.9268  11.9271  11.9271  13.1604
    13.1604  13.1604  13.1604  13.2232  13.2232  13.2232  13.2234  13.2298
    13.2298  13.2301  13.2301  13.4575  13.4575  13.4737  13.4737  13.4893
    13.5663  13.5663  13.5669  13.5669  13.5963  13.5963  13.8020  13.8021
    13.9803  13.9803  13.9803  13.9803  14.4953  14.4957  14.4957  14.4958
    14.4958  14.5224  14.5230  14.5230  14.5234  14.9088  14.9088  14.9089
    14.9089  15.1512  15.1512  15.2029  15.2029  15.2029  15.2029  15.2804
    15.2804  15.6613  15.6617

     occupation numbers 
     1.0000   1.0000   1.0000   1.0000   1.0000   1.0000   1.0000   1.0000
     1.0000   1.0000   1.0000   1.0000   1.0000   1.0000   1.0000   1.0000
     1.0000   1.0000   1.0000   1.0000   1.0000   1.0000   1.0000   1.0000
     1.0000   1.0000   1.0000   1.0000   1.0000   1.0000   1.0000   1.0000
     1.0000   1.0000   1.0000   1.0000   1.0000   1.0000   1.0000   1.0000
     1.0000   1.0000   1.0000   1.0000   1.0000   1.0000   1.0000   1.0000
     1.0000   1.0000   1.0000   1.0000   1.0000   1.0000   1.0000   1.0000
     1.0000   1.0000   1.0000   1.0000   1.0000   1.0000   1.0000   1.0000
     1.0000   1.0000   1.0000   1.0000   1.0000   1.0000   1.0000   1.0000
     1.0000   1.0000   1.0000   1.0000   1.0000   1.0000   1.0000   1.0000
     1.0000   1.0000   1.0000   1.0000   1.0000   1.0000   1.0000   1.0000
     1.0000   1.0000   1.0000   1.0000   1.0000   1.0000   1.0000   1.0000
     1.0000   1.0000   1.0000   1.0000   1.0000   1.0000   1.0000   1.0000
     1.0000   1.0000   1.0000   1.0000   1.0000   1.0000   1.0000   1.0000
     1.0000   1.0000   1.0000   1.0000   1.0000   1.0000   1.0000   1.0000
     1.0000   1.0000   1.0000   1.0000   1.0000   1.0000   1.0000   1.0000
     1.0000   1.0000   1.0000   1.0000   1.0000   1.0000   1.0000   1.0000
     1.0000   1.0000   1.0000   1.0000   1.0000   1.0000   1.0000   1.0000
     1.0000   1.0000   1.0000   1.0000   1.0000   1.0000   1.0000   1.0000
     1.0000   1.0000   1.0000   1.0000   1.0000   1.0000   1.0000   1.0000
     1.0000   1.0000   1.0000   1.0000   1.0000   1.0000   1.0000   1.0000
     1.0000   1.0000   1.0000   1.0000   1.0000   1.0000   1.0000   1.0000
     1.0000   1.0000   1.0000   1.0000   1.0000   1.0000   1.0000   1.0000
     1.0000   1.0000   1.0000   1.0000   1.0000   1.0000   1.0000   1.0000
     1.0000   1.0000   1.0000   1.0000   1.0000   1.0000   1.0000   1.0000
     1.0000   1.0000   1.0000   1.0000   1.0000   1.0000   1.0000   1.0000
     1.0000   1.0000   1.0000   1.0000   1.0000   1.0000   1.0000   1.0000
     1.0000   1.0000   1.0000   1.0000   1.0000   1.0000   1.0000   1.0000
     1.0000   1.0000   1.0000   1.0000   1.0000   1.0000   1.0000   1.0000
     1.0000   1.0000   1.0000   1.0000   1.0000   1.0000   1.0000   1.0000
     1.0000   1.0000   1.0000   1.0000   1.0000   1.0000   1.0000   1.0000
     1.0000   1.0000   1.0000   1.0000   1.0000   1.0000   1.0000   1.0000
     1.0000   1.0000   1.0000   1.0000   1.0000   1.0000   1.0000   1.0000
     1.0000   1.0000   1.0000   1.0000   1.0000   1.0000   1.0000   1.0000
     1.0000   1.0000   1.0000   1.0000   1.0000   1.0000   1.0000   1.0000
     1.0000   1.0000   1.0000   1.0000   1.0000   1.0000   1.0000   1.0000
     1.0000   1.0000   1.0000   1.0000   1.0000   1.0000   1.0000   1.0000
     1.0000   1.0000   1.0000   1.0000   1.0000   1.0000   1.0000   1.0000
     1.0000   1.0000   1.0000   1.0000   1.0000   1.0000   1.0000   1.0000
     1.0000   1.0000   1.0000   1.0000   1.0000   1.0000   1.0000   1.0000
     1.0000   1.0000   1.0000   1.0000   1.0000   1.0000   1.0000   1.0000
     1.0000   1.0000   1.0000   1.0000   1.0000   1.0000   1.0000   1.0000
     1.0000   1.0000   1.0000   1.0000   1.0000   1.0000   1.0000   1.0000
     1.0000   1.0000   1.0000   1.0000   1.0000   1.0000   1.0000   1.0000
     1.0000   1.0000   1.0000   1.0000   1.0000   1.0000   1.0000   1.0000
     1.0000   1.0000   1.0000   1.0000   1.0000   1.0000   1.0000   1.0000
     1.0000   1.0000   1.0000   1.0000   1.0000   1.0000   1.0000   1.0000
     1.0000   1.0000   1.0000   1.0000   1.0000   1.0000   1.0000   1.0000
     1.0000   1.0000   1.0000   1.0000   1.0000   1.0000   1.0000   1.0000
     1.0000   1.0000   1.0000   1.0000   1.0000   1.0000   1.0000   1.0000
     1.0000   1.0000   1.0000   1.0000   1.0000   1.0000   1.0000   1.0000
     1.0000   1.0000   1.0000   1.0000   1.0000   1.0000   1.0000   1.0000
     1.0000   1.0000   1.0000   1.0000   1.0000   1.0000   1.0000   1.0000
     1.0000   1.0000   1.0000   1.0000   1.0000   1.0000   1.0000   1.0000
     1.0000   1.0000   1.0000   1.0000   1.0000   1.0000   1.0000   1.0000
     1.0000   1.0000   1.0000   1.0000   1.0000   1.0000   1.0000   1.0000
     1.0000   1.0000   1.0000   1.0000   1.0000   1.0000   1.0000   1.0000
     1.0000   0.9884   0.9884   0.9884   0.9884   0.0000   0.0000   0.0000
     0.0000   0.0000   0.0000   0.0000   0.0000   0.0000   0.0000   0.0000
     0.0000   0.0000   0.0000   0.0000   0.0000   0.0000   0.0000   0.0000
     0.0000   0.0000   0.0000   0.0000   0.0000   0.0000   0.0000   0.0000
     0.0000   0.0000   0.0000   0.0000   0.0000   0.0000   0.0000   0.0000
     0.0000   0.0000   0.0000   0.0000   0.0000   0.0000   0.0000   0.0000
     0.0000   0.0000   0.0000   0.0000   0.0000   0.0000   0.0000   0.0000
     0.0000   0.0000   0.0000   0.0000   0.0000   0.0000   0.0000   0.0000
     0.0000   0.0000   0.0000   0.0000   0.0000   0.0000   0.0000   0.0000
     0.0000   0.0000   0.0000   0.0000   0.0000   0.0000   0.0000   0.0000
     0.0000   0.0000   0.0000   0.0000   0.0000   0.0000   0.0000   0.0000
     0.0000   0.0000   0.0000

          k = 0.0000 0.2500 0.0000 ( 29143 PWs)   bands (ev):

   -84.8074 -84.8073 -84.8047 -84.8047 -84.8029 -84.8029 -84.8029 -84.8029
   -84.8028 -84.8028 -84.8028 -84.8028 -84.8012 -84.8012 -84.7988 -84.7988
   -84.7626 -84.7592 -84.7567 -84.7567 -84.7556 -84.7555 -84.7544 -84.7543
   -84.7539 -84.7539 -84.7532 -84.7526 -84.7526 -84.7517 -84.7509 -84.7506
   -84.5400 -84.5399 -84.5377 -84.5375 -84.5360 -84.5360 -84.5360 -84.5360
   -84.5359 -84.5359 -84.5358 -84.5358 -84.5343 -84.5342 -84.5320 -84.5318
   -48.3128 -48.3128 -48.3113 -48.3113 -48.3059 -48.3045 -48.3026 -48.3023
   -48.2922 -48.2915 -48.2914 -48.2892 -48.2892 -48.2879 -48.2878 -48.2878
   -48.2872 -48.2866 -48.2845 -48.2823 -48.2823 -48.2813 -48.2804 -48.2787
   -48.2786 -48.2786 -48.2721 -48.2721 -48.2682 -48.2675 -48.2649 -48.2624
   -48.2618 -48.2612 -48.2603 -48.2581 -48.2581 -48.2574 -48.2574 -48.2568
   -48.2545 -48.2492 -48.2459 -48.2452 -48.2452 -48.2449 -48.2442 -48.2438
   -48.2431 -48.2430 -48.2426 -48.2401 -48.2401 -48.2371 -48.2346 -48.2346
   -48.2332 -48.2331 -48.2325 -48.2285 -48.2274 -48.2274 -48.2236 -48.2213
   -48.2172 -48.2131 -48.2120 -48.2088 -48.2080 -48.2066 -48.2058 -48.2058
   -48.2027 -48.1994 -48.1994 -48.1987 -48.1986 -48.1969 -48.1960 -48.1954
   -48.1954 -48.1935 -48.1897 -48.1897 -48.1872 -48.1871 -48.1871 -48.1865
   -48.1838 -48.1837 -48.1818 -48.1813 -48.1788 -48.1788 -48.1729 -48.1727
   -48.0433 -48.0433 -48.0431 -48.0431 -48.0395 -48.0394 -48.0393 -48.0391
   -48.0243 -48.0243 -48.0241 -48.0241 -48.0227 -48.0224 -48.0224 -48.0223
   -47.9996 -47.9994 -47.9994 -47.9992 -47.9972 -47.9972 -47.9971 -47.9970
   -47.9926 -47.9921 -47.9899 -47.9897 -47.9884 -47.9884 -47.9882 -47.9882
   -47.9882 -47.9882 -47.9879 -47.9879 -47.9870 -47.9866 -47.9849 -47.9848
   -47.9833 -47.9832 -47.9832 -47.9830 -47.9785 -47.9785 -47.9784 -47.9784
     0.0945   0.7134   1.1342   1.1916   1.1924   1.1985   1.2196   1.2196
     1.2209   1.2209   1.2738   1.2933   1.2985   1.3614   1.4603   1.4926
     1.5092   1.5262   1.5262   1.5347   1.5347   1.5671   1.5766   1.5766
     1.5794   1.6148   1.6172   1.6222   1.6289   1.6509   1.6522   1.6522
     1.6842   1.7181   1.7732   1.7732   1.7739   1.7837   1.8179   1.8267
     1.8267   1.8647   1.8678   1.8678   1.8748   1.9247   1.9389   1.9442
     1.9483   1.9494   1.9526   1.9659   1.9659   2.0324   2.0324   2.0393
     2.0393   2.0727   2.0740   2.0740   2.0832   2.0910   2.0972   2.1016
     2.1016   2.1486   2.1531   2.1618   2.2266   2.2490   2.2543   2.2543
     2.3134   2.3134   2.3135   2.3135   2.3171   2.3180   2.3180   2.3363
     2.3542   2.3755   2.3755   2.4171   2.4183   2.4619   2.4619   2.4816
     2.4816   2.4918   2.4918   2.4984   2.5577   2.5577   2.5634   2.5676
     2.5676   2.5735   2.5735   2.5821   2.5821   2.5977   2.6014   2.6014
     2.6291   2.6515   2.6689   2.7289   2.7289   2.7357   2.7357   2.7639
     2.7747   2.7916   2.7957   2.8012   2.8012   2.8048   2.8100   2.8109
     2.8155   2.8155   2.8207   2.8276   2.8727   2.8727   2.8764   2.8764
     2.9266   2.9266   2.9491   2.9491   2.9831   2.9973   2.9974   3.0011
     3.0202   3.0284   3.0762   3.0803   3.0803   3.1020   3.1020   3.2023
     3.2119   3.2228   3.2417   3.2417   3.2478   3.2592   3.2592   3.2632
     3.2809   3.2809   3.2829   3.2891   3.2891   3.3510   3.3513   3.3571
     3.3571   3.3758   3.4004   3.4004   3.4090   3.4096   3.4145   3.4145
     3.4203   3.4330   3.4759   3.4790   3.5068   3.5123   3.5360   3.5429
     3.5430   3.5499   3.5535   3.5535   3.5654   3.5783   3.5841   3.6124
     3.6334   3.6565   3.6573   3.6663   3.6708   3.6764   3.7114   3.7114
     3.7385   3.7541   3.7566   3.7566   3.7676   3.7720   3.7720   3.7769
     3.7769   3.7877   3.8173   3.8193   3.8515   3.8515   3.8660   3.8660
     3.8689   3.8689   3.8695   3.8860   3.9533   3.9920   3.9997   4.0120
     4.0190   4.0190   4.0190   4.0215   4.0215   4.0328   4.0541   4.0632
     4.0632   4.0682   4.0789   4.0853   4.0879   4.0879   4.0931   4.0931
     4.1118   4.1133   4.1381   4.1381   4.1564   4.2096   4.2096   4.2351
     4.2566   4.2584   4.2664   4.2797   4.2812   4.4165   4.4329   4.5828
     4.7912   4.7912   4.8358   4.9729   5.5467   5.5467   5.7656   5.7656
     5.7868   5.7868   5.8618   6.0225   6.1325   6.4500   6.4500   7.0023
     7.1373   7.1373   7.5279   7.5279   7.6459   7.8363   7.9831   7.9831
     8.1673   8.1673   8.1866   8.3700   8.8095   8.8096   8.8748   9.1628
     9.3940   9.5469   9.9630   9.9630   9.9833  10.0338  10.0339  10.4445
    10.5954  10.5975  10.5976  10.7241  11.0198  11.4426  11.4426  11.5370
    11.5370  11.7321  11.7330  11.7891  11.8150  11.8332  11.8333  11.9921
    11.9923  12.0590  12.2005  12.3319  12.3320  12.6032  12.7708  13.0412
    13.0413  13.1256  13.2534  13.3394  13.3394  13.3792  13.3795  13.4403
    13.4407  13.4803  13.6248  13.6988  13.7488  13.7495  13.8891  13.9199
    13.9969  14.2410  14.2956  14.2959  14.3434  14.5381  14.5647  14.6605
    14.6675  14.6675  14.6965  14.7097  14.7276  14.7848  14.7854  14.8140
    14.8348  14.8767  14.8768  14.8800  14.9867  15.0768  15.3808  15.3889
    15.4634  15.7148  15.8092

     occupation numbers 
     1.0000   1.0000   1.0000   1.0000   1.0000   1.0000   1.0000   1.0000
     1.0000   1.0000   1.0000   1.0000   1.0000   1.0000   1.0000   1.0000
     1.0000   1.0000   1.0000   1.0000   1.0000   1.0000   1.0000   1.0000
     1.0000   1.0000   1.0000   1.0000   1.0000   1.0000   1.0000   1.0000
     1.0000   1.0000   1.0000   1.0000   1.0000   1.0000   1.0000   1.0000
     1.0000   1.0000   1.0000   1.0000   1.0000   1.0000   1.0000   1.0000
     1.0000   1.0000   1.0000   1.0000   1.0000   1.0000   1.0000   1.0000
     1.0000   1.0000   1.0000   1.0000   1.0000   1.0000   1.0000   1.0000
     1.0000   1.0000   1.0000   1.0000   1.0000   1.0000   1.0000   1.0000
     1.0000   1.0000   1.0000   1.0000   1.0000   1.0000   1.0000   1.0000
     1.0000   1.0000   1.0000   1.0000   1.0000   1.0000   1.0000   1.0000
     1.0000   1.0000   1.0000   1.0000   1.0000   1.0000   1.0000   1.0000
     1.0000   1.0000   1.0000   1.0000   1.0000   1.0000   1.0000   1.0000
     1.0000   1.0000   1.0000   1.0000   1.0000   1.0000   1.0000   1.0000
     1.0000   1.0000   1.0000   1.0000   1.0000   1.0000   1.0000   1.0000
     1.0000   1.0000   1.0000   1.0000   1.0000   1.0000   1.0000   1.0000
     1.0000   1.0000   1.0000   1.0000   1.0000   1.0000   1.0000   1.0000
     1.0000   1.0000   1.0000   1.0000   1.0000   1.0000   1.0000   1.0000
     1.0000   1.0000   1.0000   1.0000   1.0000   1.0000   1.0000   1.0000
     1.0000   1.0000   1.0000   1.0000   1.0000   1.0000   1.0000   1.0000
     1.0000   1.0000   1.0000   1.0000   1.0000   1.0000   1.0000   1.0000
     1.0000   1.0000   1.0000   1.0000   1.0000   1.0000   1.0000   1.0000
     1.0000   1.0000   1.0000   1.0000   1.0000   1.0000   1.0000   1.0000
     1.0000   1.0000   1.0000   1.0000   1.0000   1.0000   1.0000   1.0000
     1.0000   1.0000   1.0000   1.0000   1.0000   1.0000   1.0000   1.0000
     1.0000   1.0000   1.0000   1.0000   1.0000   1.0000   1.0000   1.0000
     1.0000   1.0000   1.0000   1.0000   1.0000   1.0000   1.0000   1.0000
     1.0000   1.0000   1.0000   1.0000   1.0000   1.0000   1.0000   1.0000
     1.0000   1.0000   1.0000   1.0000   1.0000   1.0000   1.0000   1.0000
     1.0000   1.0000   1.0000   1.0000   1.0000   1.0000   1.0000   1.0000
     1.0000   1.0000   1.0000   1.0000   1.0000   1.0000   1.0000   1.0000
     1.0000   1.0000   1.0000   1.0000   1.0000   1.0000   1.0000   1.0000
     1.0000   1.0000   1.0000   1.0000   1.0000   1.0000   1.0000   1.0000
     1.0000   1.0000   1.0000   1.0000   1.0000   1.0000   1.0000   1.0000
     1.0000   1.0000   1.0000   1.0000   1.0000   1.0000   1.0000   1.0000
     1.0000   1.0000   1.0000   1.0000   1.0000   1.0000   1.0000   1.0000
     1.0000   1.0000   1.0000   1.0000   1.0000   1.0000   1.0000   1.0000
     1.0000   1.0000   1.0000   1.0000   1.0000   1.0000   1.0000   1.0000
     1.0000   1.0000   1.0000   1.0000   1.0000   1.0000   1.0000   1.0000
     1.0000   1.0000   1.0000   1.0000   1.0000   1.0000   1.0000   1.0000
     1.0000   1.0000   1.0000   1.0000   1.0000   1.0000   1.0000   1.0000
     1.0000   1.0000   1.0000   1.0000   1.0000   1.0000   1.0000   1.0000
     1.0000   1.0000   1.0000   1.0000   1.0000   1.0000   1.0000   1.0000
     1.0000   1.0000   1.0000   1.0000   1.0000   1.0000   1.0000   1.0000
     1.0000   1.0000   1.0000   1.0000   1.0000   1.0000   1.0000   1.0000
     1.0000   1.0000   1.0000   1.0000   1.0000   1.0000   1.0000   1.0000
     1.0000   1.0000   1.0000   1.0000   1.0000   1.0000   1.0000   1.0000
     1.0000   1.0000   1.0000   1.0000   1.0000   1.0000   1.0000   1.0000
     1.0000   1.0000   1.0000   1.0000   1.0000   1.0000   1.0000   1.0000
     1.0000   1.0000   1.0000   1.0000   1.0000   1.0000   1.0000   1.0000
     1.0000   1.0000   1.0000   1.0000   1.0000   1.0000   1.0000   1.0000
     1.0000   1.0000   1.0000   1.0000   1.0000   1.0000   1.0000   1.0000
     1.0000   1.0000   1.0000   1.0000   1.0000   1.0000   1.0000   1.0000
     1.0000   1.0000   1.0000   1.0000   1.0000   1.0000   1.0000   1.0000
     1.0000   1.0000   1.0000   1.0000   1.0000   1.0000   1.0000   1.0000
     1.0000   1.0000   1.0000   1.0000   1.0000   1.0000   1.0000   1.0000
     1.0000   1.0000   1.0000   1.0000   1.0000   1.0000   1.0000   1.0000
     0.3302   0.3301   0.0000   0.0000   0.0000   0.0000   0.0000   0.0000
     0.0000   0.0000   0.0000   0.0000   0.0000   0.0000   0.0000   0.0000
     0.0000   0.0000   0.0000   0.0000   0.0000   0.0000   0.0000   0.0000
     0.0000   0.0000   0.0000   0.0000   0.0000   0.0000   0.0000   0.0000
     0.0000   0.0000   0.0000   0.0000   0.0000   0.0000   0.0000   0.0000
     0.0000   0.0000   0.0000   0.0000   0.0000   0.0000   0.0000   0.0000
     0.0000   0.0000   0.0000   0.0000   0.0000   0.0000   0.0000   0.0000
     0.0000   0.0000   0.0000   0.0000   0.0000   0.0000   0.0000   0.0000
     0.0000   0.0000   0.0000   0.0000   0.0000   0.0000   0.0000   0.0000
     0.0000   0.0000   0.0000   0.0000   0.0000   0.0000   0.0000   0.0000
     0.0000   0.0000   0.0000   0.0000   0.0000   0.0000   0.0000   0.0000
     0.0000   0.0000   0.0000

          k = 0.0000-0.5000 0.0000 ( 29140 PWs)   bands (ev):

   -84.8063 -84.8063 -84.8062 -84.8062 -84.8029 -84.8029 -84.8029 -84.8029
   -84.8028 -84.8028 -84.8028 -84.8028 -84.7998 -84.7998 -84.7997 -84.7997
   -84.7613 -84.7613 -84.7562 -84.7562 -84.7562 -84.7562 -84.7539 -84.7539
   -84.7531 -84.7531 -84.7531 -84.7531 -84.7523 -84.7523 -84.7510 -84.7510
   -84.5391 -84.5391 -84.5389 -84.5389 -84.5360 -84.5360 -84.5360 -84.5360
   -84.5358 -84.5358 -84.5358 -84.5358 -84.5329 -84.5329 -84.5328 -84.5328
   -48.3045 -48.3045 -48.3044 -48.3044 -48.3016 -48.3016 -48.3016 -48.3016
   -48.2980 -48.2980 -48.2974 -48.2974 -48.2965 -48.2965 -48.2950 -48.2950
   -48.2880 -48.2880 -48.2842 -48.2842 -48.2842 -48.2842 -48.2803 -48.2803
   -48.2755 -48.2755 -48.2755 -48.2755 -48.2666 -48.2666 -48.2621 -48.2621
   -48.2561 -48.2561 -48.2514 -48.2514 -48.2508 -48.2508 -48.2499 -48.2499
   -48.2478 -48.2478 -48.2464 -48.2464 -48.2464 -48.2464 -48.2462 -48.2462
   -48.2462 -48.2462 -48.2461 -48.2461 -48.2430 -48.2430 -48.2430 -48.2430
   -48.2311 -48.2311 -48.2311 -48.2311 -48.2279 -48.2279 -48.2210 -48.2210
   -48.2156 -48.2156 -48.2087 -48.2087 -48.2032 -48.2032 -48.2031 -48.2031
   -48.2015 -48.2015 -48.1993 -48.1993 -48.1993 -48.1993 -48.1967 -48.1967
   -48.1967 -48.1967 -48.1878 -48.1878 -48.1878 -48.1878 -48.1832 -48.1832
   -48.1832 -48.1832 -48.1806 -48.1806 -48.1786 -48.1786 -48.1784 -48.1784
   -48.0355 -48.0355 -48.0355 -48.0355 -48.0354 -48.0354 -48.0353 -48.0353
   -48.0328 -48.0328 -48.0326 -48.0326 -48.0326 -48.0326 -48.0324 -48.0324
   -47.9923 -47.9923 -47.9917 -47.9917 -47.9902 -47.9902 -47.9897 -47.9897
   -47.9895 -47.9895 -47.9892 -47.9892 -47.9882 -47.9882 -47.9882 -47.9882
   -47.9880 -47.9880 -47.9880 -47.9880 -47.9857 -47.9857 -47.9857 -47.9857
   -47.9857 -47.9857 -47.9855 -47.9855 -47.9855 -47.9855 -47.9855 -47.9855
     0.5264   0.5264   1.0869   1.0869   1.3611   1.3611   1.3876   1.3876
     1.3968   1.3968   1.3968   1.3968   1.3969   1.3969   1.3969   1.3969
     1.4124   1.4124   1.4204   1.4204   1.4570   1.4570   1.4806   1.4806
     1.6224   1.6224   1.6278   1.6278   1.6278   1.6278   1.6408   1.6408
     1.6547   1.6547   1.6580   1.6580   1.6580   1.6580   1.7078   1.7078
     1.7168   1.7168   1.7585   1.7585   1.8941   1.8941   1.9097   1.9097
     1.9556   1.9556   1.9556   1.9556   2.0350   2.0350   2.0350   2.0350
     2.0492   2.0492   2.0910   2.0910   2.0910   2.0910   2.1333   2.1333
     2.1369   2.1369   2.1594   2.1594   2.1764   2.1764   2.1884   2.1884
     2.1884   2.1884   2.2067   2.2067   2.2771   2.2771   2.4269   2.4269
     2.4269   2.4269   2.4561   2.4561   2.4561   2.4561   2.4883   2.4883
     2.4883   2.4883   2.5509   2.5509   2.5509   2.5509   2.5896   2.5896
     2.5896   2.5896   2.6069   2.6069   2.6289   2.6289   2.6995   2.6995
     2.7064   2.7064   2.7101   2.7101   2.7256   2.7256   2.7256   2.7256
     2.7483   2.7483   2.7483   2.7483   2.7549   2.7549   2.7728   2.7728
     2.8305   2.8305   2.8475   2.8475   2.8475   2.8475   2.9193   2.9193
     2.9193   2.9193   2.9390   2.9390   2.9390   2.9390   3.0089   3.0089
     3.1111   3.1111   3.1111   3.1111   3.1361   3.1361   3.1361   3.1361
     3.1954   3.1954   3.2227   3.2227   3.2344   3.2344   3.2717   3.2717
     3.2767   3.2767   3.2859   3.2859   3.3048   3.3048   3.3048   3.3048
     3.3526   3.3526   3.3526   3.3526   3.3786   3.3786   3.4754   3.4754
     3.4792   3.4792   3.4792   3.4792   3.5007   3.5007   3.5785   3.5785
     3.6111   3.6111   3.6375   3.6375   3.6952   3.6952   3.7048   3.7048
     3.7119   3.7119   3.7119   3.7119   3.7534   3.7534   3.7639   3.7639
     3.7639   3.7639   3.7743   3.7743   3.7745   3.7745   3.7825   3.7825
     3.7825   3.7825   3.8099   3.8099   3.8313   3.8313   3.9143   3.9143
     3.9180   3.9180   3.9382   3.9382   3.9811   3.9811   3.9811   3.9811
     3.9945   3.9945   3.9945   3.9945   3.9974   3.9974   4.0018   4.0018
     4.0135   4.0135   4.0166   4.0166   4.0604   4.0604   4.0692   4.0692
     4.0693   4.0693   4.0740   4.0740   4.0740   4.0740   4.1640   4.1640
     4.2632   4.2632   4.2734   4.2734   4.2829   4.2829   4.7467   4.7467
     4.7467   4.7467   5.0918   5.0918   5.0918   5.0918   5.2102   5.2102
     5.9913   5.9913   5.9913   5.9913   6.4970   6.4970   6.7795   6.7795
     7.3549   7.3549   7.3549   7.3549   7.4139   7.4139   8.4852   8.4852
     8.6103   8.6103   8.9693   8.9693   8.9693   8.9694   9.5915   9.5915
     9.5915   9.5915   9.6672   9.6672   9.9711   9.9711  10.4624  10.4624
    10.4624  10.4624  10.4792  10.4792  10.7983  10.7983  10.7984  10.7984
    11.4298  11.4298  11.4603  11.4603  11.4981  11.4981  11.7715  11.7715
    11.7715  11.7715  12.1634  12.1634  12.4143  12.4143  12.4145  12.4145
    12.8022  12.8022  13.0012  13.0012  13.0014  13.0014  13.0611  13.0611
    13.8415  13.8415  13.9000  13.9000  13.9002  13.9002  14.0314  14.0314
    14.0392  14.0392  14.1366  14.1366  14.1372  14.1372  14.3353  14.3353
    14.3353  14.3353  14.3762  14.3762  14.5823  14.5823  14.6955  14.6955
    14.7632  14.7632  15.3642  15.3642  15.9326  15.9326  15.9327  15.9328
    16.0275  16.0276  16.1287

     occupation numbers 
     1.0000   1.0000   1.0000   1.0000   1.0000   1.0000   1.0000   1.0000
     1.0000   1.0000   1.0000   1.0000   1.0000   1.0000   1.0000   1.0000
     1.0000   1.0000   1.0000   1.0000   1.0000   1.0000   1.0000   1.0000
     1.0000   1.0000   1.0000   1.0000   1.0000   1.0000   1.0000   1.0000
     1.0000   1.0000   1.0000   1.0000   1.0000   1.0000   1.0000   1.0000
     1.0000   1.0000   1.0000   1.0000   1.0000   1.0000   1.0000   1.0000
     1.0000   1.0000   1.0000   1.0000   1.0000   1.0000   1.0000   1.0000
     1.0000   1.0000   1.0000   1.0000   1.0000   1.0000   1.0000   1.0000
     1.0000   1.0000   1.0000   1.0000   1.0000   1.0000   1.0000   1.0000
     1.0000   1.0000   1.0000   1.0000   1.0000   1.0000   1.0000   1.0000
     1.0000   1.0000   1.0000   1.0000   1.0000   1.0000   1.0000   1.0000
     1.0000   1.0000   1.0000   1.0000   1.0000   1.0000   1.0000   1.0000
     1.0000   1.0000   1.0000   1.0000   1.0000   1.0000   1.0000   1.0000
     1.0000   1.0000   1.0000   1.0000   1.0000   1.0000   1.0000   1.0000
     1.0000   1.0000   1.0000   1.0000   1.0000   1.0000   1.0000   1.0000
     1.0000   1.0000   1.0000   1.0000   1.0000   1.0000   1.0000   1.0000
     1.0000   1.0000   1.0000   1.0000   1.0000   1.0000   1.0000   1.0000
     1.0000   1.0000   1.0000   1.0000   1.0000   1.0000   1.0000   1.0000
     1.0000   1.0000   1.0000   1.0000   1.0000   1.0000   1.0000   1.0000
     1.0000   1.0000   1.0000   1.0000   1.0000   1.0000   1.0000   1.0000
     1.0000   1.0000   1.0000   1.0000   1.0000   1.0000   1.0000   1.0000
     1.0000   1.0000   1.0000   1.0000   1.0000   1.0000   1.0000   1.0000
     1.0000   1.0000   1.0000   1.0000   1.0000   1.0000   1.0000   1.0000
     1.0000   1.0000   1.0000   1.0000   1.0000   1.0000   1.0000   1.0000
     1.0000   1.0000   1.0000   1.0000   1.0000   1.0000   1.0000   1.0000
     1.0000   1.0000   1.0000   1.0000   1.0000   1.0000   1.0000   1.0000
     1.0000   1.0000   1.0000   1.0000   1.0000   1.0000   1.0000   1.0000
     1.0000   1.0000   1.0000   1.0000   1.0000   1.0000   1.0000   1.0000
     1.0000   1.0000   1.0000   1.0000   1.0000   1.0000   1.0000   1.0000
     1.0000   1.0000   1.0000   1.0000   1.0000   1.0000   1.0000   1.0000
     1.0000   1.0000   1.0000   1.0000   1.0000   1.0000   1.0000   1.0000
     1.0000   1.0000   1.0000   1.0000   1.0000   1.0000   1.0000   1.0000
     1.0000   1.0000   1.0000   1.0000   1.0000   1.0000   1.0000   1.0000
     1.0000   1.0000   1.0000   1.0000   1.0000   1.0000   1.0000   1.0000
     1.0000   1.0000   1.0000   1.0000   1.0000   1.0000   1.0000   1.0000
     1.0000   1.0000   1.0000   1.0000   1.0000   1.0000   1.0000   1.0000
     1.0000   1.0000   1.0000   1.0000   1.0000   1.0000   1.0000   1.0000
     1.0000   1.0000   1.0000   1.0000   1.0000   1.0000   1.0000   1.0000
     1.0000   1.0000   1.0000   1.0000   1.0000   1.0000   1.0000   1.0000
     1.0000   1.0000   1.0000   1.0000   1.0000   1.0000   1.0000   1.0000
     1.0000   1.0000   1.0000   1.0000   1.0000   1.0000   1.0000   1.0000
     1.0000   1.0000   1.0000   1.0000   1.0000   1.0000   1.0000   1.0000
     1.0000   1.0000   1.0000   1.0000   1.0000   1.0000   1.0000   1.0000
     1.0000   1.0000   1.0000   1.0000   1.0000   1.0000   1.0000   1.0000
     1.0000   1.0000   1.0000   1.0000   1.0000   1.0000   1.0000   1.0000
     1.0000   1.0000   1.0000   1.0000   1.0000   1.0000   1.0000   1.0000
     1.0000   1.0000   1.0000   1.0000   1.0000   1.0000   1.0000   1.0000
     1.0000   1.0000   1.0000   1.0000   1.0000   1.0000   1.0000   1.0000
     1.0000   1.0000   1.0000   1.0000   1.0000   1.0000   1.0000   1.0000
     1.0000   1.0000   1.0000   1.0000   1.0000   1.0000   1.0000   1.0000
     1.0000   1.0000   1.0000   1.0000   1.0000   1.0000   1.0000   1.0000
     1.0000   1.0000   1.0000   1.0000   1.0000   1.0000   1.0000   1.0000
     1.0000   1.0000   1.0000   1.0000   1.0000   1.0000   1.0000   1.0000
     1.0000   1.0000   1.0000   1.0000   1.0000   1.0000   1.0000   1.0000
     1.0000   1.0000   1.0000   1.0000   1.0000   1.0000   1.0000   1.0000
     1.0000   1.0000   1.0000   1.0000   1.0000   1.0000   1.0000   1.0000
     1.0000   1.0000   1.0000   1.0000   1.0000   1.0000   1.0000   1.0000
     0.0000   0.0000   0.0000   0.0000   0.0000   0.0000   0.0000   0.0000
     0.0000   0.0000   0.0000   0.0000   0.0000   0.0000   0.0000   0.0000
     0.0000   0.0000   0.0000   0.0000   0.0000   0.0000   0.0000   0.0000
     0.0000   0.0000   0.0000   0.0000   0.0000   0.0000   0.0000   0.0000
     0.0000   0.0000   0.0000   0.0000   0.0000   0.0000   0.0000   0.0000
     0.0000   0.0000   0.0000   0.0000   0.0000   0.0000   0.0000   0.0000
     0.0000   0.0000   0.0000   0.0000   0.0000   0.0000   0.0000   0.0000
     0.0000   0.0000   0.0000   0.0000   0.0000   0.0000   0.0000   0.0000
     0.0000   0.0000   0.0000   0.0000   0.0000   0.0000   0.0000   0.0000
     0.0000   0.0000   0.0000   0.0000   0.0000   0.0000   0.0000   0.0000
     0.0000   0.0000   0.0000   0.0000   0.0000   0.0000   0.0000   0.0000
     0.0000   0.0000   0.0000

          k = 0.2500 0.2500 0.0000 ( 29139 PWs)   bands (ev):

   -84.8070 -84.8069 -84.8046 -84.8046 -84.8045 -84.8045 -84.8035 -84.8035
   -84.8022 -84.8022 -84.8013 -84.8013 -84.8013 -84.8013 -84.7991 -84.7991
   -84.7622 -84.7590 -84.7590 -84.7570 -84.7543 -84.7543 -84.7542 -84.7541
   -84.7541 -84.7536 -84.7533 -84.7533 -84.7520 -84.7520 -84.7510 -84.7510
   -84.5397 -84.5396 -84.5375 -84.5375 -84.5374 -84.5374 -84.5366 -84.5365
   -84.5354 -84.5352 -84.5344 -84.5344 -84.5343 -84.5343 -84.5323 -84.5321
   -48.3132 -48.3132 -48.3076 -48.3064 -48.3064 -48.3036 -48.2988 -48.2988
   -48.2988 -48.2988 -48.2965 -48.2965 -48.2914 -48.2874 -48.2847 -48.2847
   -48.2841 -48.2841 -48.2808 -48.2808 -48.2807 -48.2797 -48.2797 -48.2784
   -48.2753 -48.2753 -48.2744 -48.2744 -48.2735 -48.2735 -48.2666 -48.2666
   -48.2658 -48.2658 -48.2629 -48.2628 -48.2547 -48.2518 -48.2485 -48.2485
   -48.2483 -48.2483 -48.2479 -48.2479 -48.2467 -48.2466 -48.2466 -48.2448
   -48.2447 -48.2405 -48.2392 -48.2368 -48.2368 -48.2359 -48.2359 -48.2356
   -48.2356 -48.2341 -48.2337 -48.2331 -48.2289 -48.2207 -48.2207 -48.2200
   -48.2200 -48.2128 -48.2128 -48.2085 -48.2085 -48.2041 -48.2037 -48.2037
   -48.2018 -48.2018 -48.1996 -48.1996 -48.1993 -48.1993 -48.1988 -48.1941
   -48.1941 -48.1929 -48.1929 -48.1927 -48.1910 -48.1871 -48.1870 -48.1844
   -48.1828 -48.1828 -48.1815 -48.1801 -48.1801 -48.1783 -48.1749 -48.1709
   -48.0451 -48.0449 -48.0421 -48.0419 -48.0366 -48.0364 -48.0340 -48.0340
   -48.0336 -48.0336 -48.0316 -48.0315 -48.0126 -48.0126 -48.0124 -48.0124
   -48.0092 -48.0092 -48.0090 -48.0090 -47.9929 -47.9920 -47.9902 -47.9900
   -47.9897 -47.9897 -47.9895 -47.9895 -47.9890 -47.9888 -47.9879 -47.9878
   -47.9878 -47.9878 -47.9876 -47.9876 -47.9870 -47.9870 -47.9868 -47.9868
   -47.9851 -47.9851 -47.9850 -47.9850 -47.9805 -47.9802 -47.9768 -47.9766
     0.2381   0.8260   1.1939   1.1939   1.2087   1.2226   1.2318   1.2609
     1.2610   1.3222   1.3223   1.3379   1.3379   1.3770   1.3785   1.4510
     1.4510   1.4605   1.5263   1.5687   1.5687   1.5744   1.5917   1.5917
     1.5948   1.5948   1.6040   1.6040   1.6452   1.6452   1.6470   1.6470
     1.6479   1.6479   1.6592   1.6592   1.6909   1.7159   1.7159   1.7242
     1.7894   1.7894   1.8267   1.8267   1.8304   1.8743   1.8743   1.9114
     1.9114   1.9444   1.9586   1.9586   1.9640   1.9640   1.9672   2.0106
     2.0106   2.0127   2.0128   2.0147   2.0148   2.1250   2.1250   2.1524
     2.1525   2.1923   2.1923   2.2025   2.2502   2.2502   2.2532   2.2532
     2.2661   2.2661   2.2729   2.3135   2.3455   2.3455   2.3614   2.3614
     2.3652   2.4318   2.4390   2.4390   2.4522   2.4522   2.4779   2.4779
     2.5089   2.5089   2.5288   2.5437   2.5630   2.5710   2.6036   2.6036
     2.6148   2.6148   2.6319   2.6370   2.6409   2.6837   2.6890   2.6890
     2.7067   2.7067   2.7212   2.7356   2.7356   2.7762   2.7762   2.7765
     2.7765   2.7802   2.7802   2.8114   2.8114   2.8128   2.8128   2.8135
     2.8135   2.8216   2.8216   2.8235   2.8313   2.8533   2.8722   2.8879
     2.8879   2.8963   2.9495   2.9683   2.9683   3.0475   3.0475   3.0564
     3.0564   3.0735   3.0735   3.1147   3.1245   3.1245   3.1673   3.1673
     3.1748   3.1748   3.1870   3.1914   3.2097   3.2097   3.2375   3.2408
     3.2610   3.2610   3.2852   3.2852   3.2885   3.2885   3.3174   3.3676
     3.3676   3.3742   3.3742   3.3781   3.4018   3.4019   3.4046   3.4046
     3.4165   3.4416   3.4416   3.5010   3.5023   3.5023   3.5092   3.5265
     3.5265   3.5269   3.5269   3.5313   3.5591   3.5591   3.5671   3.5672
     3.5930   3.6539   3.6705   3.6705   3.6754   3.6754   3.6863   3.6863
     3.6923   3.6926   3.6926   3.7264   3.7265   3.7446   3.7472   3.7542
     3.7542   3.7896   3.8211   3.8212   3.8498   3.8498   3.8814   3.9126
     3.9126   3.9127   3.9127   3.9141   3.9513   3.9641   3.9798   3.9798
     3.9814   3.9853   3.9853   4.0194   4.0194   4.0214   4.0257   4.0310
     4.0310   4.0584   4.0585   4.0737   4.0737   4.1104   4.1104   4.1323
     4.1426   4.1478   4.1479   4.1595   4.1596   4.1778   4.2065   4.2065
     4.2129   4.2129   4.2269   4.2269   4.2756   4.3464   4.3465   4.6126
     4.6251   4.7674   4.8337   4.8337   5.2717   5.2717   5.3794   6.0312
     6.0312   6.0923   6.0923   6.3580   6.8502   6.8540   6.8540   7.1209
     7.1209   7.2195   7.2195   7.7678   7.7678   7.8664   7.8665   8.0625
     8.4733   8.4733   8.5124   8.5152   8.5153   9.1608   9.2482   9.4284
     9.4284   9.5441   9.5441  10.0189  10.0190  10.0682  10.0682  10.2303
    10.3698  10.3698  10.4836  10.6661  10.6661  10.9145  10.9145  11.1239
    11.1239  11.1662  11.5839  11.6499  11.6499  11.7258  11.7258  11.9149
    12.0077  12.0077  12.1407  12.3457  12.3457  12.3669  12.3669  12.7452
    12.7452  12.7733  12.9478  12.9478  13.2523  13.2523  13.4176  13.4177
    13.4577  13.4577  13.5193  13.5193  13.6302  13.6899  13.6899  13.7601
    13.8976  14.1209  14.6050  14.6050  14.6144  14.6144  14.6158  14.6992
    14.6992  14.7645  14.7646  14.7653  14.7653  14.8738  14.8738  14.9986
    14.9986  15.2273  15.2273  15.4247  15.4247  15.4552  15.4552  15.7209
    15.7209  15.8094  15.8209

     occupation numbers 
     1.0000   1.0000   1.0000   1.0000   1.0000   1.0000   1.0000   1.0000
     1.0000   1.0000   1.0000   1.0000   1.0000   1.0000   1.0000   1.0000
     1.0000   1.0000   1.0000   1.0000   1.0000   1.0000   1.0000   1.0000
     1.0000   1.0000   1.0000   1.0000   1.0000   1.0000   1.0000   1.0000
     1.0000   1.0000   1.0000   1.0000   1.0000   1.0000   1.0000   1.0000
     1.0000   1.0000   1.0000   1.0000   1.0000   1.0000   1.0000   1.0000
     1.0000   1.0000   1.0000   1.0000   1.0000   1.0000   1.0000   1.0000
     1.0000   1.0000   1.0000   1.0000   1.0000   1.0000   1.0000   1.0000
     1.0000   1.0000   1.0000   1.0000   1.0000   1.0000   1.0000   1.0000
     1.0000   1.0000   1.0000   1.0000   1.0000   1.0000   1.0000   1.0000
     1.0000   1.0000   1.0000   1.0000   1.0000   1.0000   1.0000   1.0000
     1.0000   1.0000   1.0000   1.0000   1.0000   1.0000   1.0000   1.0000
     1.0000   1.0000   1.0000   1.0000   1.0000   1.0000   1.0000   1.0000
     1.0000   1.0000   1.0000   1.0000   1.0000   1.0000   1.0000   1.0000
     1.0000   1.0000   1.0000   1.0000   1.0000   1.0000   1.0000   1.0000
     1.0000   1.0000   1.0000   1.0000   1.0000   1.0000   1.0000   1.0000
     1.0000   1.0000   1.0000   1.0000   1.0000   1.0000   1.0000   1.0000
     1.0000   1.0000   1.0000   1.0000   1.0000   1.0000   1.0000   1.0000
     1.0000   1.0000   1.0000   1.0000   1.0000   1.0000   1.0000   1.0000
     1.0000   1.0000   1.0000   1.0000   1.0000   1.0000   1.0000   1.0000
     1.0000   1.0000   1.0000   1.0000   1.0000   1.0000   1.0000   1.0000
     1.0000   1.0000   1.0000   1.0000   1.0000   1.0000   1.0000   1.0000
     1.0000   1.0000   1.0000   1.0000   1.0000   1.0000   1.0000   1.0000
     1.0000   1.0000   1.0000   1.0000   1.0000   1.0000   1.0000   1.0000
     1.0000   1.0000   1.0000   1.0000   1.0000   1.0000   1.0000   1.0000
     1.0000   1.0000   1.0000   1.0000   1.0000   1.0000   1.0000   1.0000
     1.0000   1.0000   1.0000   1.0000   1.0000   1.0000   1.0000   1.0000
     1.0000   1.0000   1.0000   1.0000   1.0000   1.0000   1.0000   1.0000
     1.0000   1.0000   1.0000   1.0000   1.0000   1.0000   1.0000   1.0000
     1.0000   1.0000   1.0000   1.0000   1.0000   1.0000   1.0000   1.0000
     1.0000   1.0000   1.0000   1.0000   1.0000   1.0000   1.0000   1.0000
     1.0000   1.0000   1.0000   1.0000   1.0000   1.0000   1.0000   1.0000
     1.0000   1.0000   1.0000   1.0000   1.0000   1.0000   1.0000   1.0000
     1.0000   1.0000   1.0000   1.0000   1.0000   1.0000   1.0000   1.0000
     1.0000   1.0000   1.0000   1.0000   1.0000   1.0000   1.0000   1.0000
     1.0000   1.0000   1.0000   1.0000   1.0000   1.0000   1.0000   1.0000
     1.0000   1.0000   1.0000   1.0000   1.0000   1.0000   1.0000   1.0000
     1.0000   1.0000   1.0000   1.0000   1.0000   1.0000   1.0000   1.0000
     1.0000   1.0000   1.0000   1.0000   1.0000   1.0000   1.0000   1.0000
     1.0000   1.0000   1.0000   1.0000   1.0000   1.0000   1.0000   1.0000
     1.0000   1.0000   1.0000   1.0000   1.0000   1.0000   1.0000   1.0000
     1.0000   1.0000   1.0000   1.0000   1.0000   1.0000   1.0000   1.0000
     1.0000   1.0000   1.0000   1.0000   1.0000   1.0000   1.0000   1.0000
     1.0000   1.0000   1.0000   1.0000   1.0000   1.0000   1.0000   1.0000
     1.0000   1.0000   1.0000   1.0000   1.0000   1.0000   1.0000   1.0000
     1.0000   1.0000   1.0000   1.0000   1.0000   1.0000   1.0000   1.0000
     1.0000   1.0000   1.0000   1.0000   1.0000   1.0000   1.0000   1.0000
     1.0000   1.0000   1.0000   1.0000   1.0000   1.0000   1.0000   1.0000
     1.0000   1.0000   1.0000   1.0000   1.0000   1.0000   1.0000   1.0000
     1.0000   1.0000   1.0000   1.0000   1.0000   1.0000   1.0000   1.0000
     1.0000   1.0000   1.0000   1.0000   1.0000   1.0000   1.0000   1.0000
     1.0000   1.0000   1.0000   1.0000   1.0000   1.0000   1.0000   1.0000
     1.0000   1.0000   1.0000   1.0000   1.0000   1.0000   1.0000   1.0000
     1.0000   1.0000   1.0000   1.0000   1.0000   1.0000   1.0000   1.0000
     1.0000   1.0000   1.0000   1.0000   1.0000   1.0000   1.0000   1.0000
     1.0000   1.0000   1.0000   1.0000   1.0000   1.0000   1.0000   1.0000
     1.0000   1.0000   1.0000   1.0000   1.0000   1.0000   1.0000   0.5502
     0.5502   0.0005   0.0005   0.0000   0.0000   0.0000   0.0000   0.0000
     0.0000   0.0000   0.0000   0.0000   0.0000   0.0000   0.0000   0.0000
     0.0000   0.0000   0.0000   0.0000   0.0000   0.0000   0.0000   0.0000
     0.0000   0.0000   0.0000   0.0000   0.0000   0.0000   0.0000   0.0000
     0.0000   0.0000   0.0000   0.0000   0.0000   0.0000   0.0000   0.0000
     0.0000   0.0000   0.0000   0.0000   0.0000   0.0000   0.0000   0.0000
     0.0000   0.0000   0.0000   0.0000   0.0000   0.0000   0.0000   0.0000
     0.0000   0.0000   0.0000   0.0000   0.0000   0.0000   0.0000   0.0000
     0.0000   0.0000   0.0000   0.0000   0.0000   0.0000   0.0000   0.0000
     0.0000   0.0000   0.0000   0.0000   0.0000   0.0000   0.0000   0.0000
     0.0000   0.0000   0.0000   0.0000   0.0000   0.0000   0.0000   0.0000
     0.0000   0.0000   0.0000

          k = 0.2500-0.5000 0.0000 ( 29118 PWs)   bands (ev):

   -84.8060 -84.8060 -84.8060 -84.8060 -84.8041 -84.8041 -84.8041 -84.8041
   -84.8016 -84.8016 -84.8016 -84.8016 -84.8000 -84.8000 -84.8000 -84.8000
   -84.7609 -84.7609 -84.7582 -84.7582 -84.7542 -84.7542 -84.7538 -84.7538
   -84.7534 -84.7534 -84.7528 -84.7528 -84.7523 -84.7523 -84.7514 -84.7514
   -84.5388 -84.5388 -84.5387 -84.5387 -84.5372 -84.5372 -84.5370 -84.5370
   -84.5348 -84.5348 -84.5347 -84.5347 -84.5331 -84.5331 -84.5330 -84.5330
   -48.3089 -48.3089 -48.3082 -48.3082 -48.3050 -48.3050 -48.3045 -48.3045
   -48.2961 -48.2961 -48.2914 -48.2914 -48.2881 -48.2881 -48.2869 -48.2869
   -48.2858 -48.2858 -48.2830 -48.2830 -48.2829 -48.2829 -48.2811 -48.2811
   -48.2784 -48.2784 -48.2753 -48.2753 -48.2670 -48.2670 -48.2663 -48.2663
   -48.2652 -48.2652 -48.2631 -48.2631 -48.2555 -48.2555 -48.2550 -48.2550
   -48.2445 -48.2445 -48.2432 -48.2432 -48.2428 -48.2428 -48.2426 -48.2426
   -48.2418 -48.2418 -48.2416 -48.2416 -48.2389 -48.2389 -48.2374 -48.2374
   -48.2357 -48.2357 -48.2297 -48.2297 -48.2276 -48.2276 -48.2180 -48.2180
   -48.2131 -48.2131 -48.2129 -48.2129 -48.2065 -48.2065 -48.2029 -48.2029
   -48.2017 -48.2017 -48.2013 -48.2013 -48.1969 -48.1969 -48.1943 -48.1943
   -48.1940 -48.1940 -48.1937 -48.1937 -48.1911 -48.1911 -48.1853 -48.1853
   -48.1852 -48.1852 -48.1812 -48.1812 -48.1754 -48.1754 -48.1732 -48.1732
   -48.0421 -48.0421 -48.0417 -48.0417 -48.0402 -48.0402 -48.0401 -48.0401
   -48.0257 -48.0257 -48.0256 -48.0256 -48.0214 -48.0214 -48.0212 -48.0212
   -48.0006 -48.0006 -48.0003 -48.0003 -47.9957 -47.9957 -47.9956 -47.9956
   -47.9914 -47.9914 -47.9908 -47.9908 -47.9891 -47.9891 -47.9888 -47.9888
   -47.9872 -47.9872 -47.9871 -47.9871 -47.9855 -47.9855 -47.9854 -47.9854
   -47.9819 -47.9819 -47.9817 -47.9817 -47.9799 -47.9799 -47.9797 -47.9797
     0.6430   0.6430   1.1190   1.1190   1.2796   1.2796   1.2923   1.2923
     1.3875   1.3875   1.4242   1.4242   1.4418   1.4418   1.4421   1.4421
     1.4494   1.4494   1.4823   1.4823   1.4835   1.4835   1.4892   1.4892
     1.5018   1.5018   1.5801   1.5801   1.6192   1.6192   1.6230   1.6230
     1.6616   1.6616   1.7098   1.7098   1.7115   1.7115   1.7567   1.7567
     1.7630   1.7630   1.7633   1.7633   1.7850   1.7850   1.7939   1.7939
     1.8677   1.8677   1.8685   1.8685   1.8760   1.8760   1.8943   1.8943
     2.0736   2.0736   2.1302   2.1302   2.1451   2.1451   2.1520   2.1520
     2.1675   2.1675   2.1987   2.1987   2.2052   2.2052   2.2192   2.2192
     2.2544   2.2544   2.2573   2.2573   2.2775   2.2775   2.3634   2.3634
     2.3860   2.3860   2.4528   2.4528   2.4778   2.4778   2.5130   2.5130
     2.5131   2.5131   2.6300   2.6300   2.6309   2.6309   2.6388   2.6388
     2.6609   2.6609   2.6914   2.6914   2.6951   2.6951   2.7112   2.7112
     2.7262   2.7262   2.7425   2.7425   2.7648   2.7648   2.7919   2.7919
     2.7930   2.7930   2.8116   2.8116   2.8182   2.8182   2.8228   2.8228
     2.8242   2.8242   2.8958   2.8958   2.9390   2.9390   2.9427   2.9427
     2.9561   2.9561   2.9604   2.9604   2.9790   2.9790   2.9973   2.9973
     3.0138   3.0138   3.0430   3.0430   3.0855   3.0855   3.1125   3.1125
     3.1795   3.1795   3.2184   3.2184   3.2216   3.2216   3.2353   3.2353
     3.2563   3.2563   3.2662   3.2662   3.2916   3.2916   3.3237   3.3237
     3.3741   3.3741   3.3805   3.3805   3.3843   3.3843   3.3973   3.3973
     3.4141   3.4141   3.4289   3.4289   3.4388   3.4388   3.5240   3.5240
     3.5649   3.5649   3.5707   3.5707   3.5722   3.5722   3.5797   3.5797
     3.6188   3.6188   3.6435   3.6435   3.6660   3.6660   3.6701   3.6701
     3.7138   3.7138   3.7217   3.7217   3.7421   3.7421   3.7653   3.7653
     3.7750   3.7750   3.7962   3.7962   3.8001   3.8001   3.8243   3.8243
     3.8950   3.8950   3.9091   3.9091   3.9294   3.9294   3.9452   3.9452
     3.9974   3.9974   4.0188   4.0188   4.0688   4.0688   4.0737   4.0737
     4.1051   4.1051   4.1077   4.1077   4.1078   4.1078   4.1194   4.1194
     4.1331   4.1331   4.1418   4.1418   4.1418   4.1418   4.1438   4.1438
     4.1472   4.1472   4.2068   4.2068   4.2381   4.2381   4.2430   4.2430
     4.2485   4.2485   4.8958   4.8958   5.3034   5.3034   5.9647   5.9647
     6.3419   6.3419   6.5160   6.5160   6.8100   6.8100   6.9399   6.9399
     7.4459   7.4459   7.6401   7.6401   8.1107   8.1107   8.4677   8.4677
     8.6573   8.6573   8.6718   8.6718   8.7809   8.7809   8.9993   8.9993
     9.3237   9.3237   9.9053   9.9053   9.9202   9.9202  10.1062  10.1062
    10.1229  10.1229  10.3851  10.3851  10.5306  10.5306  10.9805  10.9805
    11.2823  11.2823  11.2871  11.2871  11.6081  11.6081  11.6123  11.6123
    11.8045  11.8045  11.8425  11.8425  12.2877  12.2877  12.2980  12.2980
    12.6731  12.6731  12.7975  12.7975  12.8124  12.8124  13.2814  13.2814
    13.2817  13.2817  13.4136  13.4136  13.9218  13.9218  14.1301  14.1301
    14.1580  14.1580  14.1720  14.1720  14.1840  14.1840  14.7799  14.7799
    14.8762  14.8762  14.9814  14.9814  15.0160  15.0160  15.1595  15.1595
    15.2482  15.2482  15.2951  15.2951  15.3311  15.3311  15.4577  15.4577
    15.5438  15.5439  15.7306

     occupation numbers 
     1.0000   1.0000   1.0000   1.0000   1.0000   1.0000   1.0000   1.0000
     1.0000   1.0000   1.0000   1.0000   1.0000   1.0000   1.0000   1.0000
     1.0000   1.0000   1.0000   1.0000   1.0000   1.0000   1.0000   1.0000
     1.0000   1.0000   1.0000   1.0000   1.0000   1.0000   1.0000   1.0000
     1.0000   1.0000   1.0000   1.0000   1.0000   1.0000   1.0000   1.0000
     1.0000   1.0000   1.0000   1.0000   1.0000   1.0000   1.0000   1.0000
     1.0000   1.0000   1.0000   1.0000   1.0000   1.0000   1.0000   1.0000
     1.0000   1.0000   1.0000   1.0000   1.0000   1.0000   1.0000   1.0000
     1.0000   1.0000   1.0000   1.0000   1.0000   1.0000   1.0000   1.0000
     1.0000   1.0000   1.0000   1.0000   1.0000   1.0000   1.0000   1.0000
     1.0000   1.0000   1.0000   1.0000   1.0000   1.0000   1.0000   1.0000
     1.0000   1.0000   1.0000   1.0000   1.0000   1.0000   1.0000   1.0000
     1.0000   1.0000   1.0000   1.0000   1.0000   1.0000   1.0000   1.0000
     1.0000   1.0000   1.0000   1.0000   1.0000   1.0000   1.0000   1.0000
     1.0000   1.0000   1.0000   1.0000   1.0000   1.0000   1.0000   1.0000
     1.0000   1.0000   1.0000   1.0000   1.0000   1.0000   1.0000   1.0000
     1.0000   1.0000   1.0000   1.0000   1.0000   1.0000   1.0000   1.0000
     1.0000   1.0000   1.0000   1.0000   1.0000   1.0000   1.0000   1.0000
     1.0000   1.0000   1.0000   1.0000   1.0000   1.0000   1.0000   1.0000
     1.0000   1.0000   1.0000   1.0000   1.0000   1.0000   1.0000   1.0000
     1.0000   1.0000   1.0000   1.0000   1.0000   1.0000   1.0000   1.0000
     1.0000   1.0000   1.0000   1.0000   1.0000   1.0000   1.0000   1.0000
     1.0000   1.0000   1.0000   1.0000   1.0000   1.0000   1.0000   1.0000
     1.0000   1.0000   1.0000   1.0000   1.0000   1.0000   1.0000   1.0000
     1.0000   1.0000   1.0000   1.0000   1.0000   1.0000   1.0000   1.0000
     1.0000   1.0000   1.0000   1.0000   1.0000   1.0000   1.0000   1.0000
     1.0000   1.0000   1.0000   1.0000   1.0000   1.0000   1.0000   1.0000
     1.0000   1.0000   1.0000   1.0000   1.0000   1.0000   1.0000   1.0000
     1.0000   1.0000   1.0000   1.0000   1.0000   1.0000   1.0000   1.0000
     1.0000   1.0000   1.0000   1.0000   1.0000   1.0000   1.0000   1.0000
     1.0000   1.0000   1.0000   1.0000   1.0000   1.0000   1.0000   1.0000
     1.0000   1.0000   1.0000   1.0000   1.0000   1.0000   1.0000   1.0000
     1.0000   1.0000   1.0000   1.0000   1.0000   1.0000   1.0000   1.0000
     1.0000   1.0000   1.0000   1.0000   1.0000   1.0000   1.0000   1.0000
     1.0000   1.0000   1.0000   1.0000   1.0000   1.0000   1.0000   1.0000
     1.0000   1.0000   1.0000   1.0000   1.0000   1.0000   1.0000   1.0000
     1.0000   1.0000   1.0000   1.0000   1.0000   1.0000   1.0000   1.0000
     1.0000   1.0000   1.0000   1.0000   1.0000   1.0000   1.0000   1.0000
     1.0000   1.0000   1.0000   1.0000   1.0000   1.0000   1.0000   1.0000
     1.0000   1.0000   1.0000   1.0000   1.0000   1.0000   1.0000   1.0000
     1.0000   1.0000   1.0000   1.0000   1.0000   1.0000   1.0000   1.0000
     1.0000   1.0000   1.0000   1.0000   1.0000   1.0000   1.0000   1.0000
     1.0000   1.0000   1.0000   1.0000   1.0000   1.0000   1.0000   1.0000
     1.0000   1.0000   1.0000   1.0000   1.0000   1.0000   1.0000   1.0000
     1.0000   1.0000   1.0000   1.0000   1.0000   1.0000   1.0000   1.0000
     1.0000   1.0000   1.0000   1.0000   1.0000   1.0000   1.0000   1.0000
     1.0000   1.0000   1.0000   1.0000   1.0000   1.0000   1.0000   1.0000
     1.0000   1.0000   1.0000   1.0000   1.0000   1.0000   1.0000   1.0000
     1.0000   1.0000   1.0000   1.0000   1.0000   1.0000   1.0000   1.0000
     1.0000   1.0000   1.0000   1.0000   1.0000   1.0000   1.0000   1.0000
     1.0000   1.0000   1.0000   1.0000   1.0000   1.0000   1.0000   1.0000
     1.0000   1.0000   1.0000   1.0000   1.0000   1.0000   1.0000   1.0000
     1.0000   1.0000   1.0000   1.0000   1.0000   1.0000   1.0000   1.0000
     1.0000   1.0000   1.0000   1.0000   1.0000   1.0000   1.0000   1.0000
     1.0000   1.0000   1.0000   1.0000   1.0000   1.0000   1.0000   1.0000
     1.0000   1.0000   1.0000   1.0000   1.0000   1.0000   1.0000   1.0000
     1.0000   1.0000   1.0000   1.0000   1.0000   1.0000   1.0000   1.0000
     0.0000   0.0000   0.0000   0.0000   0.0000   0.0000   0.0000   0.0000
     0.0000   0.0000   0.0000   0.0000   0.0000   0.0000   0.0000   0.0000
     0.0000   0.0000   0.0000   0.0000   0.0000   0.0000   0.0000   0.0000
     0.0000   0.0000   0.0000   0.0000   0.0000   0.0000   0.0000   0.0000
     0.0000   0.0000   0.0000   0.0000   0.0000   0.0000   0.0000   0.0000
     0.0000   0.0000   0.0000   0.0000   0.0000   0.0000   0.0000   0.0000
     0.0000   0.0000   0.0000   0.0000   0.0000   0.0000   0.0000   0.0000
     0.0000   0.0000   0.0000   0.0000   0.0000   0.0000   0.0000   0.0000
     0.0000   0.0000   0.0000   0.0000   0.0000   0.0000   0.0000   0.0000
     0.0000   0.0000   0.0000   0.0000   0.0000   0.0000   0.0000   0.0000
     0.0000   0.0000   0.0000   0.0000   0.0000   0.0000   0.0000   0.0000
     0.0000   0.0000   0.0000

          k =-0.5000-0.5000 0.0000 ( 29096 PWs)   bands (ev):

   -84.8052 -84.8052 -84.8052 -84.8052 -84.8052 -84.8052 -84.8052 -84.8052
   -84.8006 -84.8006 -84.8006 -84.8006 -84.8006 -84.8006 -84.8006 -84.8006
   -84.7598 -84.7598 -84.7598 -84.7598 -84.7536 -84.7536 -84.7536 -84.7536
   -84.7526 -84.7526 -84.7526 -84.7526 -84.7525 -84.7525 -84.7525 -84.7525
   -84.5381 -84.5381 -84.5381 -84.5381 -84.5380 -84.5380 -84.5380 -84.5380
   -84.5338 -84.5338 -84.5338 -84.5338 -84.5337 -84.5337 -84.5337 -84.5337
   -48.3087 -48.3087 -48.3087 -48.3087 -48.3087 -48.3087 -48.3087 -48.3087
   -48.2874 -48.2874 -48.2874 -48.2874 -48.2827 -48.2827 -48.2827 -48.2827
   -48.2810 -48.2810 -48.2810 -48.2810 -48.2810 -48.2810 -48.2810 -48.2810
   -48.2766 -48.2766 -48.2766 -48.2766 -48.2752 -48.2752 -48.2752 -48.2752
   -48.2646 -48.2646 -48.2646 -48.2646 -48.2646 -48.2646 -48.2646 -48.2646
   -48.2408 -48.2408 -48.2408 -48.2408 -48.2408 -48.2408 -48.2408 -48.2408
   -48.2367 -48.2367 -48.2367 -48.2367 -48.2359 -48.2359 -48.2359 -48.2359
   -48.2353 -48.2353 -48.2353 -48.2353 -48.2216 -48.2216 -48.2216 -48.2216
   -48.2089 -48.2089 -48.2089 -48.2089 -48.2088 -48.2088 -48.2088 -48.2088
   -48.2013 -48.2013 -48.2013 -48.2013 -48.2013 -48.2013 -48.2013 -48.2013
   -48.1919 -48.1919 -48.1919 -48.1919 -48.1890 -48.1890 -48.1890 -48.1890
   -48.1837 -48.1837 -48.1837 -48.1837 -48.1711 -48.1711 -48.1711 -48.1711
   -48.0435 -48.0435 -48.0435 -48.0435 -48.0433 -48.0433 -48.0433 -48.0433
   -48.0128 -48.0128 -48.0128 -48.0128 -48.0125 -48.0125 -48.0125 -48.0125
   -48.0089 -48.0089 -48.0089 -48.0089 -48.0087 -48.0087 -48.0087 -48.0087
   -47.9903 -47.9903 -47.9903 -47.9903 -47.9899 -47.9899 -47.9899 -47.9899
   -47.9863 -47.9863 -47.9863 -47.9863 -47.9861 -47.9861 -47.9861 -47.9861
   -47.9782 -47.9782 -47.9782 -47.9782 -47.9778 -47.9778 -47.9778 -47.9778
     0.9513   0.9513   0.9513   0.9513   1.1968   1.1968   1.1968   1.1968
     1.4078   1.4078   1.4078   1.4078   1.4464   1.4464   1.4464   1.4464
     1.5405   1.5405   1.5405   1.5405   1.5405   1.5405   1.5405   1.5405
     1.5456   1.5456   1.5456   1.5456   1.5456   1.5456   1.5456   1.5456
     1.7288   1.7288   1.7288   1.7288   1.7289   1.7289   1.7289   1.7289
     1.7343   1.7343   1.7343   1.7343   1.7350   1.7350   1.7350   1.7350
     1.8895   1.8895   1.8895   1.8895   1.9109   1.9109   1.9109   1.9109
     1.9109   1.9109   1.9109   1.9109   2.1203   2.1203   2.1203   2.1203
     2.1723   2.1723   2.1723   2.1723   2.1724   2.1724   2.1724   2.1724
     2.3483   2.3483   2.3483   2.3483   2.3484   2.3484   2.3484   2.3484
     2.4018   2.4018   2.4018   2.4018   2.5230   2.5230   2.5230   2.5230
     2.6176   2.6176   2.6176   2.6176   2.7266   2.7266   2.7266   2.7266
     2.7367   2.7367   2.7367   2.7367   2.7460   2.7460   2.7460   2.7460
     2.7581   2.7581   2.7581   2.7581   2.8711   2.8711   2.8711   2.8711
     2.9166   2.9166   2.9166   2.9166   2.9339   2.9339   2.9339   2.9339
     2.9340   2.9340   2.9340   2.9340   2.9411   2.9411   2.9411   2.9411
     3.0513   3.0513   3.0513   3.0513   3.0514   3.0514   3.0514   3.0514
     3.0812   3.0812   3.0812   3.0812   3.0908   3.0908   3.0908   3.0908
     3.1682   3.1682   3.1682   3.1682   3.1682   3.1682   3.1682   3.1682
     3.1731   3.1732   3.1732   3.1732   3.2457   3.2457   3.2457   3.2457
     3.2590   3.2590   3.2590   3.2590   3.2591   3.2591   3.2591   3.2591
     3.3615   3.3615   3.3615   3.3615   3.3965   3.3965   3.3965   3.3965
     3.3965   3.3965   3.3965   3.3965   3.3980   3.3980   3.3980   3.3980
     3.6029   3.6029   3.6029   3.6029   3.6542   3.6542   3.6542   3.6542
     3.6695   3.6695   3.6695   3.6695   3.7352   3.7352   3.7352   3.7352
     3.7353   3.7353   3.7353   3.7353   3.7366   3.7366   3.7366   3.7366
     3.9158   3.9158   3.9158   3.9158   3.9697   3.9697   3.9697   3.9697
     3.9697   3.9697   3.9697   3.9697   4.0874   4.0874   4.0874   4.0874
     4.1639   4.1639   4.1639   4.1639   4.1639   4.1639   4.1639   4.1639
     4.1810   4.1810   4.1810   4.1810   4.2007   4.2007   4.2007   4.2007
     4.2057   4.2057   4.2057   4.2057   4.2057   4.2057   4.2057   4.2057
     4.2757   4.2757   4.2757   4.2757   5.6558   5.6558   5.6558   5.6558
     7.3993   7.3993   7.3993   7.3993   7.5505   7.5505   7.5505   7.5505
     7.5505   7.5505   7.5505   7.5505   8.2255   8.2255   8.2255   8.2255
     8.2255   8.2255   8.2255   8.2255   9.1850   9.1850   9.1850   9.1850
     9.1850   9.1850   9.1850   9.1850   9.1899   9.1899   9.1899   9.1899
    10.5400  10.5400  10.5400  10.5400  10.6954  10.6954  10.6954  10.6954
    10.6954  10.6954  10.6954  10.6954  12.0491  12.0491  12.0491  12.0491
    12.2812  12.2812  12.2812  12.2812  12.2812  12.2812  12.2812  12.2812
    12.4304  12.4304  12.4304  12.4304  12.6774  12.6774  12.6774  12.6774
    13.2020  13.2020  13.2020  13.2020  14.0198  14.0198  14.0198  14.0198
[...]
     atom   16 type  1   force =     0.00000000   -0.00000000   -0.00000084
     atom   17 type  1   force =     0.00000000   -0.00000000   -0.00012452
     atom   18 type  1   force =     0.00000000   -0.00000000   -0.00139072
     atom   19 type  1   force =     0.00000000    0.00000000   -0.00000084
     atom   20 type  1   force =     0.00000000    0.00000000   -0.00012452
     atom   21 type  1   force =     0.00000000    0.00000000   -0.00139072
     atom   22 type  1   force =    -0.00000000   -0.00000000   -0.00000084
     atom   23 type  1   force =     0.00000000   -0.00000000   -0.00012452
     atom   24 type  1   force =    -0.00000000   -0.00000000   -0.00139072
     atom   25 type  1   force =     0.00000000    0.00000000   -0.00000084
     atom   26 type  1   force =     0.00000000    0.00000000   -0.00012452
     atom   27 type  1   force =     0.00000000    0.00000000   -0.00139072
     atom   28 type  1   force =     0.00000000    0.00000000   -0.00000084
     atom   29 type  1   force =     0.00000000    0.00000000   -0.00012452
     atom   30 type  1   force =     0.00000000    0.00000000   -0.00139072
     atom   31 type  1   force =    -0.00000000    0.00000000   -0.00000084
     atom   32 type  1   force =    -0.00000000    0.00000000   -0.00012452
     atom   33 type  1   force =    -0.00000000    0.00000000   -0.00139072
     atom   34 type  1   force =    -0.00000000    0.00000000   -0.00000084
     atom   35 type  1   force =    -0.00000000    0.00000000   -0.00012452
     atom   36 type  1   force =    -0.00000000   -0.00000000   -0.00139072
     atom   37 type  1   force =    -0.00000000   -0.00000000    0.00138998
     atom   38 type  1   force =     0.00000000    0.00000000    0.00012379
     atom   39 type  1   force =     0.00000000    0.00000000    0.00000191
     atom   40 type  1   force =    -0.00000000    0.00000000    0.00138998
     atom   41 type  1   force =     0.00000000   -0.00000000    0.00012379
     atom   42 type  1   force =     0.00000000   -0.00000000    0.00000191
     atom   43 type  1   force =     0.00000000   -0.00000000    0.00138998
     atom   44 type  1   force =    -0.00000000    0.00000000    0.00012379
     atom   45 type  1   force =    -0.00000000    0.00000000    0.00000191
     atom   46 type  1   force =     0.00000000    0.00000000    0.00138998
     atom   47 type  1   force =    -0.00000000   -0.00000000    0.00012379
     atom   48 type  1   force =    -0.00000000   -0.00000000    0.00000191
     The Hubbard contrib.    to forces
     atom    1 type  1   force =     0.00000000    0.00000000    0.00000000
     atom    2 type  1   force =     0.00000000    0.00000000    0.00000000
     atom    3 type  1   force =     0.00000000    0.00000000    0.00000000
     atom    4 type  1   force =     0.00000000    0.00000000    0.00000000
     atom    5 type  1   force =     0.00000000    0.00000000    0.00000000
     atom    6 type  1   force =     0.00000000    0.00000000    0.00000000
     atom    7 type  1   force =     0.00000000    0.00000000    0.00000000
     atom    8 type  1   force =     0.00000000    0.00000000    0.00000000
     atom    9 type  1   force =     0.00000000    0.00000000    0.00000000
     atom   10 type  1   force =     0.00000000    0.00000000    0.00000000
     atom   11 type  1   force =     0.00000000    0.00000000    0.00000000
     atom   12 type  1   force =     0.00000000    0.00000000    0.00000000
     atom   13 type  1   force =     0.00000000    0.00000000    0.00000000
     atom   14 type  1   force =     0.00000000    0.00000000    0.00000000
     atom   15 type  1   force =     0.00000000    0.00000000    0.00000000
     atom   16 type  1   force =     0.00000000    0.00000000    0.00000000
     atom   17 type  1   force =     0.00000000    0.00000000    0.00000000
     atom   18 type  1   force =     0.00000000    0.00000000    0.00000000
     atom   19 type  1   force =     0.00000000    0.00000000    0.00000000
     atom   20 type  1   force =     0.00000000    0.00000000    0.00000000
     atom   21 type  1   force =     0.00000000    0.00000000    0.00000000
     atom   22 type  1   force =     0.00000000    0.00000000    0.00000000
     atom   23 type  1   force =     0.00000000    0.00000000    0.00000000
     atom   24 type  1   force =     0.00000000    0.00000000    0.00000000
     atom   25 type  1   force =     0.00000000    0.00000000    0.00000000
     atom   26 type  1   force =     0.00000000    0.00000000    0.00000000
     atom   27 type  1   force =     0.00000000    0.00000000    0.00000000
     atom   28 type  1   force =     0.00000000    0.00000000    0.00000000
     atom   29 type  1   force =     0.00000000    0.00000000    0.00000000
     atom   30 type  1   force =     0.00000000    0.00000000    0.00000000
     atom   31 type  1   force =     0.00000000    0.00000000    0.00000000
     atom   32 type  1   force =     0.00000000    0.00000000    0.00000000
     atom   33 type  1   force =     0.00000000    0.00000000    0.00000000
     atom   34 type  1   force =     0.00000000    0.00000000    0.00000000
     atom   35 type  1   force =     0.00000000    0.00000000    0.00000000
     atom   36 type  1   force =     0.00000000    0.00000000    0.00000000
     atom   37 type  1   force =     0.00000000    0.00000000    0.00000000
     atom   38 type  1   force =     0.00000000    0.00000000    0.00000000
     atom   39 type  1   force =     0.00000000    0.00000000    0.00000000
     atom   40 type  1   force =     0.00000000    0.00000000    0.00000000
     atom   41 type  1   force =     0.00000000    0.00000000    0.00000000
     atom   42 type  1   force =     0.00000000    0.00000000    0.00000000
     atom   43 type  1   force =     0.00000000    0.00000000    0.00000000
     atom   44 type  1   force =     0.00000000    0.00000000    0.00000000
     atom   45 type  1   force =     0.00000000    0.00000000    0.00000000
     atom   46 type  1   force =     0.00000000    0.00000000    0.00000000
     atom   47 type  1   force =     0.00000000    0.00000000    0.00000000
     atom   48 type  1   force =     0.00000000    0.00000000    0.00000000
     The SCF correction term to forces
     atom    1 type  1   force =     0.00000000   -0.00000000   -0.00002336
     atom    2 type  1   force =     0.00000000   -0.00000000   -0.00006548
     atom    3 type  1   force =     0.00000000   -0.00000000    0.00001184
     atom    4 type  1   force =    -0.00000000   -0.00000000   -0.00002333
     atom    5 type  1   force =     0.00000000    0.00000000   -0.00006547
     atom    6 type  1   force =    -0.00000000   -0.00000000    0.00001185
     atom    7 type  1   force =    -0.00000000    0.00000000   -0.00002333
     atom    8 type  1   force =     0.00000000   -0.00000000   -0.00006547
     atom    9 type  1   force =    -0.00000000   -0.00000000    0.00001185
     atom   10 type  1   force =    -0.00000000   -0.00000000   -0.00002331
     atom   11 type  1   force =    -0.00000000    0.00000000   -0.00006547
     atom   12 type  1   force =    -0.00000000   -0.00000000    0.00001182
     atom   13 type  1   force =     0.00000000    0.00000005   -0.00002770
     atom   14 type  1   force =    -0.00000000    0.00000006    0.00005844
     atom   15 type  1   force =    -0.00000000    0.00000009    0.00003495
     atom   16 type  1   force =     0.00000000   -0.00000005   -0.00002770
     atom   17 type  1   force =    -0.00000000   -0.00000006    0.00005844
     atom   18 type  1   force =     0.00000000   -0.00000009    0.00003495
     atom   19 type  1   force =    -0.00000000    0.00000008   -0.00002768
     atom   20 type  1   force =    -0.00000000    0.00000009    0.00005846
     atom   21 type  1   force =     0.00000000    0.00000006    0.00003492
     atom   22 type  1   force =    -0.00000000   -0.00000008   -0.00002768
     atom   23 type  1   force =     0.00000000   -0.00000009    0.00005846
     atom   24 type  1   force =    -0.00000000   -0.00000006    0.00003492
     atom   25 type  1   force =     0.00000005   -0.00000000   -0.00002770
     atom   26 type  1   force =     0.00000006    0.00000000    0.00005844
     atom   27 type  1   force =     0.00000009   -0.00000000    0.00003495
     atom   28 type  1   force =     0.00000008    0.00000000   -0.00002768
     atom   29 type  1   force =     0.00000009   -0.00000000    0.00005846
     atom   30 type  1   force =     0.00000006   -0.00000000    0.00003492
     atom   31 type  1   force =    -0.00000005   -0.00000000   -0.00002770
     atom   32 type  1   force =    -0.00000006    0.00000000    0.00005844
     atom   33 type  1   force =    -0.00000009   -0.00000000    0.00003495
     atom   34 type  1   force =    -0.00000008    0.00000000   -0.00002768
     atom   35 type  1   force =    -0.00000009   -0.00000000    0.00005846
     atom   36 type  1   force =    -0.00000006   -0.00000000    0.00003492
     atom   37 type  1   force =     0.00000004    0.00000004   -0.00002359
     atom   38 type  1   force =     0.00000006    0.00000006   -0.00006525
     atom   39 type  1   force =     0.00000008    0.00000008    0.00001207
     atom   40 type  1   force =     0.00000004   -0.00000004   -0.00002359
     atom   41 type  1   force =     0.00000006   -0.00000006   -0.00006525
     atom   42 type  1   force =     0.00000008   -0.00000008    0.00001207
     atom   43 type  1   force =    -0.00000004    0.00000004   -0.00002359
     atom   44 type  1   force =    -0.00000006    0.00000006   -0.00006525
     atom   45 type  1   force =    -0.00000008    0.00000008    0.00001207
     atom   46 type  1   force =    -0.00000004   -0.00000004   -0.00002359
     atom   47 type  1   force =    -0.00000006   -0.00000006   -0.00006525
     atom   48 type  1   force =    -0.00000008   -0.00000008    0.00001207

     Total force =     0.003967     Total SCF correction =     0.000288


     Computing stress (Cartesian axis) and pressure


     negative rho (up, down):  5.929E-03 0.000E+00
          total   stress  (Ry/bohr**3)                   (kbar)     P=      -61.43
  -0.00043986   0.00000000   0.00000000          -64.71        0.00        0.00
   0.00000000  -0.00043986   0.00000000            0.00      -64.71        0.00
   0.00000000   0.00000000  -0.00037316            0.00        0.00      -54.89

     kinetic stress (kbar)  30034.90      0.00      0.00
                                0.00  30034.90      0.00
                                0.00      0.00  30084.26

     local   stress (kbar)-860768.54      0.00      0.00
                                0.00-860768.54      0.00
                                0.00      0.00 864756.88

     nonloc. stress (kbar)   3527.62      0.00      0.00
                                0.00   3527.62      0.00
                                0.00      0.00   3514.80

     hartree stress (kbar) 444483.40     -0.00      0.00
                               -0.00 444483.40      0.00
                                0.00      0.00-410367.60

     exc-cor stress (kbar)  -5416.30     -0.00     -0.00
                               -0.00  -5416.30     -0.00
                               -0.00     -0.00  -5419.90

     corecor stress (kbar)   -732.67      0.00      0.00
                                0.00   -732.67     -0.00
                                0.00     -0.00   -732.64

     ewald   stress (kbar) 388806.88     -0.00     -0.00
                               -0.00 388806.88     -0.00
                               -0.00     -0.00-481890.70

     hubbard stress (kbar)      0.00      0.00      0.00
                                0.00      0.00      0.00
                                0.00      0.00      0.00

     DFT-D   stress (kbar)      0.00      0.00      0.00
                                0.00      0.00      0.00
                                0.00      0.00      0.00

     XDM     stress (kbar)      0.00      0.00      0.00
                                0.00      0.00      0.00
                                0.00      0.00      0.00

     dft-nl  stress (kbar)      0.00      0.00      0.00
                                0.00      0.00      0.00
                                0.00      0.00      0.00

     TS-vdW  stress (kbar)      0.00      0.00      0.00
                                0.00      0.00      0.00
                                0.00      0.00      0.00


     Energy error            =      8.5E-05
     Gradient error          =      8.4E-04

     bfgs converged in  14 scf cycles and  13 bfgs steps
     (criteria: energy <  1.0E-04 Ry, force <  1.0E-03 Ry/Bohr)

     End of BFGS Geometry Optimization

     Final energy   =  -14188.9805650317 Ry

     File ./surface.bfgs deleted, as requested
Begin final coordinates

ATOMIC_POSITIONS (angstrom)
Ag            0.0000000000        0.0000000000        0.0498558751
Ag            0.0000000000        0.0000000000        4.1650869045
Ag            0.0000000000        0.0000000000        8.3124770533
Ag            0.0000000000        4.1605500000        0.0498592540
Ag            0.0000000000        4.1605500000        4.1650865064
Ag            0.0000000000        4.1605500000        8.3124762635
Ag            4.1605500000        0.0000000000        0.0498592540
Ag            4.1605500000        0.0000000000        4.1650865064
Ag            4.1605500000        0.0000000000        8.3124762635
Ag            4.1605500000        4.1605500000        0.0498627239
Ag            4.1605500000        4.1605500000        4.1650862136
Ag            4.1605500000        4.1605500000        8.3124755782
Ag            0.0000000000        2.0802761995        2.0888154145
Ag           -0.0000000000        2.0802760311        6.2361608056
Ag           -0.0000000000        2.0802756324       10.3517662170
Ag           -0.0000000000        6.2408238005        2.0888154145
Ag            0.0000000000        6.2408239689        6.2361608056
Ag           -0.0000000000        6.2408243676       10.3517662170
Ag            4.1605500000        2.0802761809        2.0888157926
Ag            4.1605500000        2.0802760973        6.2361593662
Ag            4.1605500000        2.0802757578       10.3517659837
Ag            4.1605500000        6.2408238191        2.0888157926
Ag            4.1605500000        6.2408239027        6.2361593662
Ag            4.1605500000        6.2408242422       10.3517659837
Ag            2.0802761995       -0.0000000000        2.0888154145
Ag            2.0802760311        0.0000000000        6.2361608056
Ag            2.0802756324       -0.0000000000       10.3517662170
Ag            2.0802761809        4.1605500000        2.0888157926
Ag            2.0802760973        4.1605500000        6.2361593662
Ag            2.0802757578        4.1605500000       10.3517659837
Ag            6.2408238005        0.0000000000        2.0888154145
Ag            6.2408239689       -0.0000000000        6.2361608056
Ag            6.2408243676       -0.0000000000       10.3517662170
Ag            6.2408238191        4.1605500000        2.0888157926
Ag            6.2408239027        4.1605500000        6.2361593662
Ag            6.2408242422        4.1605500000       10.3517659837
Ag            2.0802748652        2.0802748652        0.0496843990
Ag            2.0802764447        2.0802764447        4.1649760408
Ag            2.0802761775        2.0802761775        8.3126838815
Ag            2.0802748652        6.2408251348        0.0496843990
Ag            2.0802764447        6.2408235553        4.1649760408
Ag            2.0802761775        6.2408238225        8.3126838815
Ag            6.2408251348        2.0802748652        0.0496843990
Ag            6.2408235553        2.0802764447        4.1649760408
Ag            6.2408238225        2.0802761775        8.3126838815
Ag            6.2408251348        6.2408251348        0.0496843990
Ag            6.2408235553        6.2408235553        4.1649760408
Ag            6.2408238225        6.2408238225        8.3126838815
End final coordinates



     Writing output data file ./surface.save/

     init_run     :      5.38s CPU      5.57s WALL (       1 calls)
     electrons    :   1935.23s CPU   1958.98s WALL (      14 calls)
     update_pot   :      3.23s CPU      3.26s WALL (      13 calls)
     forces       :     49.12s CPU     49.84s WALL (      14 calls)
     stress       :    499.25s CPU    502.75s WALL (      14 calls)

     Called by init_run:
     wfcinit      :      4.63s CPU      4.74s WALL (       1 calls)
     wfcinit:atom :      0.01s CPU      0.02s WALL (       6 calls)
     wfcinit:wfcr :      4.49s CPU      4.57s WALL (       6 calls)
     potinit      :      0.10s CPU      0.11s WALL (       1 calls)
     hinit0       :      0.20s CPU      0.24s WALL (       1 calls)

     Called by electrons:
     c_bands      :   1748.68s CPU   1763.39s WALL (     129 calls)
     sum_band     :    172.14s CPU    177.82s WALL (     129 calls)
     v_of_rho     :      3.81s CPU      3.84s WALL (     137 calls)
     v_h          :      0.26s CPU      0.26s WALL (     137 calls)
     v_xc         :      4.27s CPU      4.31s WALL (     165 calls)
     newd         :     10.68s CPU     13.34s WALL (     137 calls)
     mix_rho      :      0.40s CPU      0.40s WALL (     129 calls)

     Called by c_bands:
     init_us_2    :      4.17s CPU      4.21s WALL (    1722 calls)
     cegterg      :   1726.14s CPU   1740.48s WALL (     774 calls)

     Called by sum_band:
     sum_band:wei :      0.16s CPU      0.16s WALL (     129 calls)
     sum_band:loo :    158.01s CPU    159.86s WALL (     129 calls)
     sum_band:buf :      1.58s CPU      1.64s WALL (     774 calls)
     sum_band:ini :      1.81s CPU      1.82s WALL (     774 calls)
     sum_band:cal :     75.51s CPU     75.94s WALL (     774 calls)
     sum_band:bec :      3.55s CPU      3.58s WALL (     774 calls)
     addusdens    :      8.58s CPU     12.34s WALL (     129 calls)
     addusd:skk   :      0.61s CPU      0.62s WALL (     129 calls)
     addusd:dgemm :      3.51s CPU      6.96s WALL (     129 calls)
     addusd:qvan2 :      3.78s CPU      3.80s WALL (     129 calls)

     Called by *egterg:
     cdiaghg      :    352.08s CPU    354.20s WALL (    2601 calls)
     cegterg:over :    194.00s CPU    195.25s WALL (    1941 calls)
     cegterg:upda :    108.24s CPU    108.94s WALL (    1941 calls)
     cegterg:last :    285.54s CPU    287.19s WALL (    1432 calls)
     cdiaghg:chol :     18.10s CPU     18.21s WALL (    2601 calls)
     cdiaghg:inve :     21.83s CPU     21.96s WALL (    2601 calls)
     cdiaghg:para :     54.99s CPU     55.31s WALL (    5202 calls)
     h_psi        :    610.65s CPU    618.17s WALL (    2721 calls)
     s_psi        :    104.64s CPU    105.29s WALL (    2721 calls)
     g_psi        :      0.90s CPU      0.91s WALL (    1941 calls)

     Called by h_psi:
     h_psi:calbec :    178.73s CPU    179.84s WALL (    2721 calls)
     vloc_psi     :    327.64s CPU    333.34s WALL (    2721 calls)
     add_vuspsi   :    102.24s CPU    102.90s WALL (    2721 calls)

     General routines
     calbec       :    602.82s CPU    606.19s WALL (    3915 calls)
     fft          :      3.94s CPU      4.01s WALL (    2122 calls)
     ffts         :      0.29s CPU      0.29s WALL (     266 calls)
     fftw         :    381.00s CPU    387.60s WALL ( 2356464 calls)
     interpolate  :      0.29s CPU      0.30s WALL (     137 calls)

     Parallel routines
     fft_scatt_xy :     24.96s CPU     25.40s WALL ( 2358852 calls)
     fft_scatt_yz :    224.91s CPU    229.11s WALL ( 2358852 calls)

     PWSCF        :  41m36.40s CPU  42m 6.77s WALL


   This run was terminated on:   3:29:15  10Dec2021            

=------------------------------------------------------------------------------=
   JOB DONE.
=------------------------------------------------------------------------------=
