
     Program PWSCF v.6.7MaX starts on  6Dec2021 at 19:10:38 

     This program is part of the open-source Quantum ESPRESSO suite
     for quantum simulation of materials; please cite
         "P. Giannozzi et al., J. Phys.:Condens. Matter 21 395502 (2009);
         "P. Giannozzi et al., J. Phys.:Condens. Matter 29 465901 (2017);
          URL http://www.quantum-espresso.org", 
     in publications or presentations arising from this work. More details at
     http://www.quantum-espresso.org/quote

     Parallel version (MPI), running on    32 processors

     MPI processes distributed on     1 nodes
     R & G space division:  proc/nbgrp/npool/nimage =      32
     Reading input from pt_surface.110.qe.in

     Current dimensions of program PWSCF are:
     Max number of different atomic species (ntypx) = 10
     Max number of k-points (npk) =  40000
     Max angular momentum in pseudopotentials (lmaxx) =  3

     Subspace diagonalization in iterative solution of the eigenvalue problem:
     one sub-group per band group will be used
     scalapack distributed-memory algorithm (size of sub-group:  5*  5 procs)

     Found symmetry operation: I + (  0.0000  0.3333  0.0000)
     This is a supercell, fractional translations are disabled

     Parallelization info
     --------------------
     sticks:   dense  smooth     PW     G-vecs:    dense   smooth      PW
     Min         268     107     29                23858     6033     857
     Max         270     108     30                23862     6036     862
     Sum        8579    3437    941               763507   193093   27497



     bravais-lattice index     =            8
     lattice parameter (alat)  =      22.5450  a.u.
     unit-cell volume          =    8701.6544 (a.u.)^3
     number of atoms/cell      =           18
     number of atomic types    =            1
     number of electrons       =       288.00
     number of Kohn-Sham states=          173
     kinetic-energy cutoff     =      30.0000  Ry
     charge density cutoff     =     300.0000  Ry
     scf convergence threshold =      1.0E-06
     mixing beta               =       0.3000
     number of iterations used =            8  plain     mixing
     energy convergence thresh.=      1.0E-04
     force convergence thresh. =      1.0E-03
     Exchange-correlation=  SLA  PW   PBX  PBC
                           (   1   4   3   4   0   0   0)
     nstep                     =           50


     celldm(1)=  22.545018  celldm(2)=   0.707107  celldm(3)=   1.073903
     celldm(4)=   0.000000  celldm(5)=   0.000000  celldm(6)=   0.000000

     crystal axes: (cart. coord. in units of alat)
               a(1) = (   1.000000   0.000000   0.000000 )  
               a(2) = (   0.000000   0.707107   0.000000 )  
               a(3) = (   0.000000   0.000000   1.073903 )  

     reciprocal axes: (cart. coord. in units 2 pi/alat)
               b(1) = (  1.000000  0.000000  0.000000 )  
               b(2) = (  0.000000  1.414214  0.000000 )  
               b(3) = (  0.000000  0.000000  0.931182 )  


     PseudoPot. # 1 for Pt read from file:
     /expanse/lustre/projects/csd622/tpascal/nano110/qe/pseudo/pt_pbe_v1.4.uspp.F.UPF
     MD5 check sum: f09d6de1a584b5a045c4fc126da2d0c4
     Pseudo is Ultrasoft + core correction, Zval = 16.0
     Generated by new atomic code, or converted to UPF format
     Using radial grid of  985 points,  6 beta functions with: 
                l(1) =   0
                l(2) =   0
                l(3) =   1
                l(4) =   1
                l(5) =   2
                l(6) =   2
     Q(r) pseudized with  8 coefficients,  rinner =    1.300   1.300   1.300
                                                       1.300   1.300

     atomic species   valence    mass     pseudopotential
        Pt            16.00   195.08400     Pt( 1.00)

      4 Sym. Ops. (no inversion) found


                                    s                        frac. trans.

      isym =  1     identity                                     

 cryst.   s( 1) = (     1          0          0      )
                  (     0          1          0      )
                  (     0          0          1      )

 cart.    s( 1) = (  1.0000000  0.0000000  0.0000000 )
                  (  0.0000000  1.0000000  0.0000000 )
                  (  0.0000000  0.0000000  1.0000000 )


      isym =  2     180 deg rotation - cart. axis [0,0,1]        

 cryst.   s( 2) = (    -1          0          0      )
                  (     0         -1          0      )
                  (     0          0          1      )

 cart.    s( 2) = ( -1.0000000  0.0000000  0.0000000 )
                  (  0.0000000 -1.0000000  0.0000000 )
                  (  0.0000000  0.0000000  1.0000000 )


      isym =  3     inv. 180 deg rotation - cart. axis [0,1,0]   

 cryst.   s( 3) = (     1          0          0      )
                  (     0         -1          0      )
                  (     0          0          1      )

 cart.    s( 3) = (  1.0000000  0.0000000  0.0000000 )
                  (  0.0000000 -1.0000000  0.0000000 )
                  (  0.0000000  0.0000000  1.0000000 )


      isym =  4     inv. 180 deg rotation - cart. axis [1,0,0]   

 cryst.   s( 4) = (    -1          0          0      )
                  (     0          1          0      )
                  (     0          0          1      )

 cart.    s( 4) = ( -1.0000000  0.0000000  0.0000000 )
                  (  0.0000000  1.0000000  0.0000000 )
                  (  0.0000000  0.0000000  1.0000000 )


     point group C_2v (mm2) 
     there are  4 classes
     the character table:

       E     C2    s_v   s_v' 
A_1    1.00  1.00  1.00  1.00
A_2    1.00  1.00 -1.00 -1.00
B_1    1.00 -1.00  1.00 -1.00
B_2    1.00 -1.00 -1.00  1.00

     the symmetry operations in each class and the name of the first element:

     E        1
          identity                                               
     C2       2
          180 deg rotation - cart. axis [0,0,1]                  
     s_v      4
          inv. 180 deg rotation - cart. axis [1,0,0]             
     s_v'     3
          inv. 180 deg rotation - cart. axis [0,1,0]             

   Cartesian axes

     site n.     atom                  positions (alat units)
         1           Pt  tau(   1) = (   0.0000000   0.0000000   0.0000000  )
         2           Pt  tau(   2) = (   0.1666667   0.1178511   0.1178511  )
         3           Pt  tau(   3) = (   0.0000000   0.2357023   0.0000000  )
         4           Pt  tau(   4) = (   0.1666667   0.3535534   0.1178511  )
         5           Pt  tau(   5) = (   0.0000000   0.4714045   0.0000000  )
         6           Pt  tau(   6) = (   0.1666667   0.5892556   0.1178511  )
         7           Pt  tau(   7) = (   0.3333333   0.0000000   0.0000000  )
         8           Pt  tau(   8) = (   0.5000000   0.1178511   0.1178511  )
         9           Pt  tau(   9) = (   0.3333333   0.2357023   0.0000000  )
        10           Pt  tau(  10) = (   0.5000000   0.3535534   0.1178511  )
        11           Pt  tau(  11) = (   0.3333333   0.4714045   0.0000000  )
        12           Pt  tau(  12) = (   0.5000000   0.5892556   0.1178511  )
        13           Pt  tau(  13) = (   0.6666667   0.0000000   0.0000000  )
        14           Pt  tau(  14) = (   0.8333333   0.1178511   0.1178511  )
        15           Pt  tau(  15) = (   0.6666667   0.2357023   0.0000000  )
        16           Pt  tau(  16) = (   0.8333333   0.3535534   0.1178511  )
        17           Pt  tau(  17) = (   0.6666667   0.4714045   0.0000000  )
        18           Pt  tau(  18) = (   0.8333333   0.5892556   0.1178511  )

   Crystallographic axes

     site n.     atom                  positions (cryst. coord.)
         1           Pt  tau(   1) = (  0.0000000  0.0000000  0.0000000  )
         2           Pt  tau(   2) = (  0.1666667  0.1666667  0.1097409  )
         3           Pt  tau(   3) = (  0.0000000  0.3333335  0.0000000  )
         4           Pt  tau(   4) = (  0.1666667  0.5000002  0.1097409  )
         5           Pt  tau(   5) = (  0.0000000  0.6666669  0.0000000  )
         6           Pt  tau(   6) = (  0.1666667  0.8333336  0.1097409  )
         7           Pt  tau(   7) = (  0.3333333  0.0000000  0.0000000  )
         8           Pt  tau(   8) = (  0.5000000  0.1666667  0.1097409  )
         9           Pt  tau(   9) = (  0.3333333  0.3333335  0.0000000  )
        10           Pt  tau(  10) = (  0.5000000  0.5000002  0.1097409  )
        11           Pt  tau(  11) = (  0.3333333  0.6666669  0.0000000  )
        12           Pt  tau(  12) = (  0.5000000  0.8333336  0.1097409  )
        13           Pt  tau(  13) = (  0.6666667  0.0000000  0.0000000  )
        14           Pt  tau(  14) = (  0.8333333  0.1666667  0.1097409  )
        15           Pt  tau(  15) = (  0.6666667  0.3333335  0.0000000  )
        16           Pt  tau(  16) = (  0.8333333  0.5000002  0.1097409  )
        17           Pt  tau(  17) = (  0.6666667  0.6666669  0.0000000  )
        18           Pt  tau(  18) = (  0.8333333  0.8333336  0.1097409  )

     number of k points=     9  Gaussian smearing, width (Ry)=  0.0030
                       cart. coord. in units 2pi/alat
        k(    1) = (   0.0000000   0.0000000   0.0000000), wk =   0.1250000
        k(    2) = (   0.0000000   0.3535535   0.0000000), wk =   0.2500000
        k(    3) = (   0.0000000  -0.7071070   0.0000000), wk =   0.1250000
        k(    4) = (   0.2500000   0.0000000   0.0000000), wk =   0.2500000
        k(    5) = (   0.2500000   0.3535535   0.0000000), wk =   0.5000000
        k(    6) = (   0.2500000  -0.7071070   0.0000000), wk =   0.2500000
        k(    7) = (  -0.5000000   0.0000000   0.0000000), wk =   0.1250000
        k(    8) = (  -0.5000000   0.3535535   0.0000000), wk =   0.2500000
        k(    9) = (  -0.5000000  -0.7071070   0.0000000), wk =   0.1250000

                       cryst. coord.
        k(    1) = (   0.0000000   0.0000000   0.0000000), wk =   0.1250000
        k(    2) = (   0.0000000   0.2500000   0.0000000), wk =   0.2500000
        k(    3) = (   0.0000000  -0.5000000   0.0000000), wk =   0.1250000
        k(    4) = (   0.2500000   0.0000000   0.0000000), wk =   0.2500000
        k(    5) = (   0.2500000   0.2500000   0.0000000), wk =   0.5000000
        k(    6) = (   0.2500000  -0.5000000   0.0000000), wk =   0.2500000
        k(    7) = (  -0.5000000   0.0000000   0.0000000), wk =   0.1250000
        k(    8) = (  -0.5000000   0.2500000   0.0000000), wk =   0.2500000
        k(    9) = (  -0.5000000  -0.5000000   0.0000000), wk =   0.1250000

     Dense  grid:   763507 G-vectors     FFT dimensions: ( 125,  90, 135)

     Smooth grid:   193093 G-vectors     FFT dimensions: (  80,  60,  90)

     Dynamical RAM for                 wfc:       1.99 MB

     Dynamical RAM for     wfc (w. buffer):      19.90 MB

     Dynamical RAM for           str. fact:       0.36 MB

     Dynamical RAM for           local pot:       0.00 MB

     Dynamical RAM for          nlocal pot:       3.73 MB

     Dynamical RAM for                qrad:       1.39 MB

     Dynamical RAM for          rho,v,vnew:       2.38 MB

     Dynamical RAM for               rhoin:       0.79 MB

     Dynamical RAM for            rho*nmix:       5.83 MB

     Dynamical RAM for           G-vectors:       1.41 MB

     Dynamical RAM for          h,s,v(r/c):       0.22 MB

     Dynamical RAM for          <psi|beta>:       0.86 MB

     Dynamical RAM for                 psi:       3.98 MB

     Dynamical RAM for                hpsi:       3.98 MB

     Dynamical RAM for                spsi:       3.98 MB

     Dynamical RAM for      wfcinit/wfcrot:       6.04 MB

     Dynamical RAM for           addusdens:      74.28 MB

     Dynamical RAM for          addusforce:      86.91 MB

     Dynamical RAM for         addusstress:      73.19 MB

     Estimated static dynamical RAM per process >      38.67 MB

     Estimated max dynamical RAM per process >     125.58 MB

     Estimated total dynamical RAM >       3.92 GB

     Initial potential from superposition of free atoms

     starting charge  278.99980, renormalised to  288.00000

     negative rho (up, down):  3.396E+00 0.000E+00
     Starting wfcs are  216 randomized atomic wfcs

     total cpu time spent up to now is        3.0 secs

     Self-consistent Calculation

     iteration #  1     ecut=    30.00 Ry     beta= 0.30
     Davidson diagonalization with overlap
     ethr =  1.00E-02,  avg # of iterations =  6.0

     negative rho (up, down):  3.217E+00 0.000E+00

     total cpu time spent up to now is        9.8 secs

     total energy              =   -3783.59100033 Ry
     estimated scf accuracy    <      34.34365006 Ry

     iteration #  2     ecut=    30.00 Ry     beta= 0.30
     Davidson diagonalization with overlap
     ethr =  1.00E-02,  avg # of iterations =  2.7

     negative rho (up, down):  3.197E+00 0.000E+00

     total cpu time spent up to now is       15.3 secs

     total energy              =   -3790.42944026 Ry
     estimated scf accuracy    <       2.55497559 Ry

     iteration #  3     ecut=    30.00 Ry     beta= 0.30
     Davidson diagonalization with overlap
     ethr =  8.87E-04,  avg # of iterations =  3.1

     negative rho (up, down):  3.173E+00 0.000E+00

     total cpu time spent up to now is       20.7 secs

     total energy              =   -3790.55628412 Ry
     estimated scf accuracy    <       0.33971592 Ry

     iteration #  4     ecut=    30.00 Ry     beta= 0.30
     Davidson diagonalization with overlap
     ethr =  1.18E-04,  avg # of iterations =  6.6

     negative rho (up, down):  3.172E+00 0.000E+00

     total cpu time spent up to now is       27.7 secs

     total energy              =   -3790.56834808 Ry
     estimated scf accuracy    <       2.33157674 Ry

     iteration #  5     ecut=    30.00 Ry     beta= 0.30
     Davidson diagonalization with overlap
     ethr =  1.18E-04,  avg # of iterations =  1.2

     negative rho (up, down):  3.148E+00 0.000E+00

     total cpu time spent up to now is       31.8 secs

     total energy              =   -3790.60723382 Ry
     estimated scf accuracy    <       0.09842597 Ry

     iteration #  6     ecut=    30.00 Ry     beta= 0.30
     Davidson diagonalization with overlap
     ethr =  3.42E-05,  avg # of iterations =  3.4

     negative rho (up, down):  3.138E+00 0.000E+00

     total cpu time spent up to now is       37.2 secs

     total energy              =   -3790.60547100 Ry
     estimated scf accuracy    <       0.23098743 Ry

     iteration #  7     ecut=    30.00 Ry     beta= 0.30
     Davidson diagonalization with overlap
     ethr =  3.42E-05,  avg # of iterations =  1.0

     negative rho (up, down):  3.139E+00 0.000E+00

     total cpu time spent up to now is       41.2 secs

     total energy              =   -3790.61488203 Ry
     estimated scf accuracy    <       0.03127428 Ry

     iteration #  8     ecut=    30.00 Ry     beta= 0.30
     Davidson diagonalization with overlap
     ethr =  1.09E-05,  avg # of iterations =  2.9

     negative rho (up, down):  3.140E+00 0.000E+00

     total cpu time spent up to now is       45.8 secs

     total energy              =   -3790.61383318 Ry
     estimated scf accuracy    <       0.02214881 Ry

     iteration #  9     ecut=    30.00 Ry     beta= 0.30
     Davidson diagonalization with overlap
     ethr =  7.69E-06,  avg # of iterations =  1.8

     negative rho (up, down):  3.140E+00 0.000E+00

     total cpu time spent up to now is       50.4 secs

     total energy              =   -3790.61509002 Ry
     estimated scf accuracy    <       0.00155400 Ry

     iteration # 10     ecut=    30.00 Ry     beta= 0.30
     Davidson diagonalization with overlap
     ethr =  5.40E-07,  avg # of iterations =  9.9

     negative rho (up, down):  3.139E+00 0.000E+00

     total cpu time spent up to now is       56.5 secs

     total energy              =   -3790.61514228 Ry
     estimated scf accuracy    <       0.00067354 Ry

     iteration # 11     ecut=    30.00 Ry     beta= 0.30
     Davidson diagonalization with overlap
     ethr =  2.34E-07,  avg # of iterations =  2.0

     negative rho (up, down):  3.138E+00 0.000E+00

     total cpu time spent up to now is       61.5 secs

     total energy              =   -3790.61516766 Ry
     estimated scf accuracy    <       0.00093772 Ry

     iteration # 12     ecut=    30.00 Ry     beta= 0.30
     Davidson diagonalization with overlap
     ethr =  2.34E-07,  avg # of iterations =  1.0

     negative rho (up, down):  3.138E+00 0.000E+00

     total cpu time spent up to now is       65.5 secs

     total energy              =   -3790.61522308 Ry
     estimated scf accuracy    <       0.00009009 Ry

     iteration # 13     ecut=    30.00 Ry     beta= 0.30
     Davidson diagonalization with overlap
     ethr =  3.13E-08,  avg # of iterations =  2.0

     negative rho (up, down):  3.138E+00 0.000E+00

     total cpu time spent up to now is       70.2 secs

     total energy              =   -3790.61522083 Ry
     estimated scf accuracy    <       0.00011145 Ry

     iteration # 14     ecut=    30.00 Ry     beta= 0.30
     Davidson diagonalization with overlap
     ethr =  3.13E-08,  avg # of iterations =  1.0

     negative rho (up, down):  3.138E+00 0.000E+00

     total cpu time spent up to now is       74.3 secs

     total energy              =   -3790.61522023 Ry
     estimated scf accuracy    <       0.00036407 Ry

     iteration # 15     ecut=    30.00 Ry     beta= 0.30
     Davidson diagonalization with overlap
     ethr =  3.13E-08,  avg # of iterations =  1.0

     negative rho (up, down):  3.138E+00 0.000E+00

     total cpu time spent up to now is       78.3 secs

     total energy              =   -3790.61522938 Ry
     estimated scf accuracy    <       0.00004256 Ry

     iteration # 16     ecut=    30.00 Ry     beta= 0.30
     Davidson diagonalization with overlap
     ethr =  1.48E-08,  avg # of iterations =  1.0

     negative rho (up, down):  3.138E+00 0.000E+00

     total cpu time spent up to now is       82.3 secs

     End of self-consistent calculation

          k = 0.0000 0.0000 0.0000 ( 24099 PWs)   bands (ev):

   -51.5032 -51.5032 -51.5031 -51.5030 -51.4998 -51.4997 -51.4848 -51.4848
   -51.4847 -51.4847 -51.4641 -51.4639 -51.3748 -51.3564 -51.3432 -51.3431
   -51.3376 -51.3375 -51.3136 -51.3135 -51.3003 -51.3003 -51.2815 -51.2802
   -51.2802 -51.2801 -51.2800 -51.2569 -51.2568 -51.2327 -51.2327 -51.2326
   -51.2325 -51.2193 -51.2192 -51.1863 -51.0504 -51.0110 -51.0109 -51.0091
   -51.0091 -51.0012 -51.0012 -51.0012 -51.0011 -50.9815 -50.9815 -50.9814
   -50.9813 -50.9781 -50.9781 -50.9731 -50.9729 -50.9727  -5.7040  -4.9446
    -4.9446  -4.3308  -4.3308  -4.2690  -3.6586  -3.6586  -3.2782  -3.2782
    -3.2782  -3.2781  -3.1805  -3.1805  -2.9998  -2.9998  -2.9998  -2.9997
    -2.9468  -2.9468  -2.9430  -2.9430  -2.7562  -2.7562  -2.7562  -2.7562
    -2.6448  -2.5632  -2.5632  -2.5632  -2.5632  -2.4298  -2.4298  -2.2031
    -1.9957  -1.9268  -1.9268  -1.6402  -1.6402  -1.6401  -1.6401  -1.5183
    -1.5183  -1.4734  -1.4733  -1.3185  -1.3184  -1.2815  -1.2815  -1.2146
    -1.2146  -1.2086  -1.0827  -1.0827  -1.0826  -1.0826  -0.9586  -0.9585
    -0.9585  -0.9585  -0.8994  -0.8994  -0.8377  -0.8377  -0.4575  -0.4378
    -0.3813  -0.3813  -0.3813  -0.3812  -0.2724  -0.1277  -0.1276  -0.0261
    -0.0261  -0.0261  -0.0261   0.0472   0.0472   0.0580   0.0581   0.0581
     0.0582   0.1223   0.1223   0.2787   0.4268   0.4269   0.4537   0.4538
     0.5720   0.5720   0.6309   0.7549   0.7792   0.7792   0.7792   0.7793
     0.8054   0.8055   1.4878   1.4878   2.3938   2.3938   3.1843   3.1843
     3.3587   3.3587   3.3587   3.3587   4.5096   4.6716   4.6716   6.0903
     6.0903   6.0903   6.0903   6.2534   6.3201

     occupation numbers 
     1.0000   1.0000   1.0000   1.0000   1.0000   1.0000   1.0000   1.0000
     1.0000   1.0000   1.0000   1.0000   1.0000   1.0000   1.0000   1.0000
     1.0000   1.0000   1.0000   1.0000   1.0000   1.0000   1.0000   1.0000
     1.0000   1.0000   1.0000   1.0000   1.0000   1.0000   1.0000   1.0000
     1.0000   1.0000   1.0000   1.0000   1.0000   1.0000   1.0000   1.0000
     1.0000   1.0000   1.0000   1.0000   1.0000   1.0000   1.0000   1.0000
     1.0000   1.0000   1.0000   1.0000   1.0000   1.0000   1.0000   1.0000
     1.0000   1.0000   1.0000   1.0000   1.0000   1.0000   1.0000   1.0000
     1.0000   1.0000   1.0000   1.0000   1.0000   1.0000   1.0000   1.0000
     1.0000   1.0000   1.0000   1.0000   1.0000   1.0000   1.0000   1.0000
     1.0000   1.0000   1.0000   1.0000   1.0000   1.0000   1.0000   1.0000
     1.0000   1.0000   1.0000   1.0000   1.0000   1.0000   1.0000   1.0000
     1.0000   1.0000   1.0000   1.0000   1.0000   1.0000   1.0000   1.0000
     1.0000   1.0000   1.0000   1.0000   1.0000   1.0000   1.0000   1.0000
     1.0000   1.0000   1.0000   1.0000   1.0000   1.0000   1.0000   1.0000
     1.0000   1.0000   1.0000   1.0000   1.0000   1.0000   1.0000   1.0000
     1.0000   1.0000   1.0000   1.0000   1.0000   1.0000   1.0000   1.0000
     1.0000   1.0000   1.0000   1.0000   0.8302   0.8296   0.5095   0.5086
     0.0000   0.0000   0.0000   0.0000   0.0000   0.0000   0.0000   0.0000
     0.0000   0.0000   0.0000   0.0000   0.0000   0.0000   0.0000   0.0000
     0.0000   0.0000   0.0000   0.0000   0.0000   0.0000   0.0000   0.0000
     0.0000   0.0000   0.0000   0.0000   0.0000

          k = 0.0000 0.3536 0.0000 ( 24144 PWs)   bands (ev):

   -51.5373 -51.5373 -51.5298 -51.5279 -51.5279 -51.5113 -51.4540 -51.4537
   -51.4537 -51.4271 -51.4270 -51.4030 -51.3703 -51.3698 -51.3628 -51.3628
   -51.3378 -51.3282 -51.3282 -51.3210 -51.3210 -51.2989 -51.2989 -51.2981
   -51.2874 -51.2618 -51.2617 -51.2499 -51.2498 -51.2386 -51.2365 -51.2365
   -51.2345 -51.2344 -51.2045 -51.1883 -51.0469 -51.0249 -51.0088 -51.0087
   -51.0049 -51.0049 -50.9976 -50.9962 -50.9962 -50.9854 -50.9854 -50.9790
   -50.9789 -50.9780 -50.9780 -50.9779 -50.9723 -50.9711  -5.5072  -4.7333
    -4.7333  -4.2279  -4.1188  -4.1188  -4.0693  -3.4652  -3.4652  -3.4642
    -3.4012  -3.4012  -3.3290  -3.2874  -3.2874  -3.2011  -3.1811  -3.1161
    -2.8367  -2.8367  -2.8355  -2.8355  -2.7603  -2.7603  -2.6423  -2.6275
    -2.6172  -2.6172  -2.5420  -2.5213  -2.5213  -2.3905  -2.3905  -2.2445
    -2.2386  -1.9856  -1.9856  -1.9061  -1.8753  -1.8753  -1.5930  -1.5930
    -1.5406  -1.5406  -1.5146  -1.4828  -1.4638  -1.4638  -1.4308  -1.4307
    -1.2449  -1.2449  -1.0686  -0.9986  -0.9986  -0.9610  -0.9566  -0.9304
    -0.9304  -0.8203  -0.8203  -0.7041  -0.6581  -0.5187  -0.5039  -0.5038
    -0.4741  -0.4740  -0.4543  -0.4240  -0.4239  -0.3212  -0.3212  -0.2232
    -0.0829  -0.0829  -0.0702  -0.0283  -0.0283   0.1259   0.2292   0.2407
     0.2407   0.3331   0.3390   0.3616   0.4523   0.4745   0.4745   0.4898
     0.4898   0.5045   0.5045   0.5440   0.5440   0.5984   0.9260   1.4915
     1.6662   1.6662   1.8490   1.8490   2.2587   2.6283   2.6283   2.8962
     2.8962   4.3228   4.3729   4.3729   4.6620   4.9513   4.9513   4.9703
     4.9704   5.3064   5.7545   6.0547   6.0547

     occupation numbers 
     1.0000   1.0000   1.0000   1.0000   1.0000   1.0000   1.0000   1.0000
     1.0000   1.0000   1.0000   1.0000   1.0000   1.0000   1.0000   1.0000
     1.0000   1.0000   1.0000   1.0000   1.0000   1.0000   1.0000   1.0000
     1.0000   1.0000   1.0000   1.0000   1.0000   1.0000   1.0000   1.0000
     1.0000   1.0000   1.0000   1.0000   1.0000   1.0000   1.0000   1.0000
     1.0000   1.0000   1.0000   1.0000   1.0000   1.0000   1.0000   1.0000
     1.0000   1.0000   1.0000   1.0000   1.0000   1.0000   1.0000   1.0000
     1.0000   1.0000   1.0000   1.0000   1.0000   1.0000   1.0000   1.0000
     1.0000   1.0000   1.0000   1.0000   1.0000   1.0000   1.0000   1.0000
     1.0000   1.0000   1.0000   1.0000   1.0000   1.0000   1.0000   1.0000
     1.0000   1.0000   1.0000   1.0000   1.0000   1.0000   1.0000   1.0000
     1.0000   1.0000   1.0000   1.0000   1.0000   1.0000   1.0000   1.0000
     1.0000   1.0000   1.0000   1.0000   1.0000   1.0000   1.0000   1.0000
     1.0000   1.0000   1.0000   1.0000   1.0000   1.0000   1.0000   1.0000
     1.0000   1.0000   1.0000   1.0000   1.0000   1.0000   1.0000   1.0000
     1.0000   1.0000   1.0000   1.0000   1.0000   1.0000   1.0000   1.0000
     1.0000   1.0000   1.0000   1.0000   1.0000   1.0000   1.0000   1.0000
     1.0000   1.0000   1.0000   0.9993   0.5280   0.2432   0.2430   0.1098
     0.1096   0.0413   0.0412   0.0010   0.0010   0.0000   0.0000   0.0000
     0.0000   0.0000   0.0000   0.0000   0.0000   0.0000   0.0000   0.0000
     0.0000   0.0000   0.0000   0.0000   0.0000   0.0000   0.0000   0.0000
     0.0000   0.0000   0.0000   0.0000   0.0000

          k = 0.0000-0.7071 0.0000 ( 24148 PWs)   bands (ev):

   -51.5468 -51.5467 -51.5467 -51.5465 -51.5348 -51.5346 -51.4060 -51.4059
   -51.4026 -51.4026 -51.4025 -51.4025 -51.3681 -51.3680 -51.3680 -51.3679
   -51.3575 -51.3574 -51.3426 -51.3425 -51.3155 -51.3155 -51.3155 -51.3154
   -51.2618 -51.2617 -51.2466 -51.2466 -51.2465 -51.2464 -51.2407 -51.2406
   -51.2406 -51.2405 -51.1943 -51.1942 -51.0377 -51.0376 -51.0074 -51.0074
   -51.0074 -51.0073 -50.9908 -50.9907 -50.9906 -50.9906 -50.9862 -50.9860
   -50.9780 -50.9780 -50.9780 -50.9779 -50.9712 -50.9712  -4.9601  -4.9600
    -4.1531  -4.1531  -4.1531  -4.1530  -3.5411  -3.5410  -3.5308  -3.5308
    -3.5308  -3.5308  -3.4264  -3.4264  -3.4263  -3.4263  -3.4165  -3.4165
    -3.2789  -3.2788  -2.8626  -2.8625  -2.8625  -2.8625  -2.5743  -2.5742
    -2.3870  -2.3870  -2.3429  -2.3429  -2.3428  -2.3428  -2.2755  -2.2755
    -2.2754  -2.2754  -2.0367  -2.0367  -1.7879  -1.7879  -1.7879  -1.7879
    -1.6700  -1.6699  -1.5949  -1.5949  -1.5949  -1.5949  -1.3192  -1.3192
    -1.3192  -1.3191  -0.9657  -0.9657  -0.9272  -0.9272  -0.9271  -0.9270
    -0.7745  -0.7744  -0.7582  -0.7582  -0.6700  -0.6700  -0.6699  -0.6699
    -0.4217  -0.4217  -0.4216  -0.4216  -0.2474  -0.2474  -0.2430  -0.2430
    -0.2429  -0.2429   0.0671   0.0671   0.0671   0.0672   0.1044   0.1044
     0.3064   0.3064   0.3622   0.3623   0.3785   0.3785   0.4734   0.4734
     0.4734   0.4734   0.5012   0.5012   0.5013   0.5013   1.5205   1.5205
     2.0831   2.0832   2.0832   2.0832   3.1717   3.1718   3.6554   3.6554
     3.6554   3.6554   3.8660   3.8660   3.8660   3.8660   5.0919   5.0919
     5.6500   5.6501   5.6501   5.6501   6.0585

     occupation numbers 
     1.0000   1.0000   1.0000   1.0000   1.0000   1.0000   1.0000   1.0000
     1.0000   1.0000   1.0000   1.0000   1.0000   1.0000   1.0000   1.0000
     1.0000   1.0000   1.0000   1.0000   1.0000   1.0000   1.0000   1.0000
     1.0000   1.0000   1.0000   1.0000   1.0000   1.0000   1.0000   1.0000
     1.0000   1.0000   1.0000   1.0000   1.0000   1.0000   1.0000   1.0000
     1.0000   1.0000   1.0000   1.0000   1.0000   1.0000   1.0000   1.0000
     1.0000   1.0000   1.0000   1.0000   1.0000   1.0000   1.0000   1.0000
     1.0000   1.0000   1.0000   1.0000   1.0000   1.0000   1.0000   1.0000
     1.0000   1.0000   1.0000   1.0000   1.0000   1.0000   1.0000   1.0000
     1.0000   1.0000   1.0000   1.0000   1.0000   1.0000   1.0000   1.0000
     1.0000   1.0000   1.0000   1.0000   1.0000   1.0000   1.0000   1.0000
     1.0000   1.0000   1.0000   1.0000   1.0000   1.0000   1.0000   1.0000
     1.0000   1.0000   1.0000   1.0000   1.0000   1.0000   1.0000   1.0000
     1.0000   1.0000   1.0000   1.0000   1.0000   1.0000   1.0000   1.0000
     1.0000   1.0000   1.0000   1.0000   1.0000   1.0000   1.0000   1.0000
     1.0000   1.0000   1.0000   1.0000   1.0000   1.0000   1.0000   1.0000
     1.0000   1.0000   1.0000   1.0000   1.0000   1.0000   1.0000   1.0000
     1.0000   1.0000   0.9993   0.9993   0.9957   0.9957   0.2550   0.2550
     0.2549   0.2549   0.0524   0.0523   0.0520   0.0520   0.0000   0.0000
     0.0000   0.0000   0.0000   0.0000   0.0000   0.0000   0.0000   0.0000
     0.0000   0.0000   0.0000   0.0000   0.0000   0.0000   0.0000   0.0000
     0.0000   0.0000   0.0000   0.0000   0.0000

          k = 0.2500 0.0000 0.0000 ( 24133 PWs)   bands (ev):

   -51.5030 -51.5029 -51.5015 -51.5014 -51.5004 -51.5003 -51.4920 -51.4919
   -51.4773 -51.4771 -51.4658 -51.4657 -51.3728 -51.3570 -51.3551 -51.3454
   -51.3286 -51.3257 -51.3111 -51.3109 -51.3093 -51.2931 -51.2930 -51.2925
   -51.2828 -51.2817 -51.2665 -51.2664 -51.2419 -51.2418 -51.2321 -51.2261
   -51.2260 -51.2199 -51.2198 -51.1927 -51.0461 -51.0220 -51.0104 -51.0102
   -51.0054 -51.0053 -50.9981 -50.9963 -50.9962 -50.9860 -50.9859 -50.9826
   -50.9778 -50.9777 -50.9753 -50.9735 -50.9734 -50.9730  -5.6446  -5.2252
    -4.6940  -4.3988  -4.2913  -4.2687  -3.6178  -3.6178  -3.3839  -3.3839
    -3.1907  -3.1906  -3.1346  -3.1346  -3.0411  -3.0411  -2.9872  -2.9872
    -2.9500  -2.9499  -2.9393  -2.9393  -2.8812  -2.8812  -2.7496  -2.7496
    -2.6655  -2.6165  -2.6165  -2.5900  -2.4825  -2.4825  -2.2111  -2.1183
    -2.0031  -1.9999  -1.8487  -1.7138  -1.6094  -1.6093  -1.5233  -1.5233
    -1.4864  -1.4863  -1.4449  -1.3968  -1.2735  -1.2734  -1.2319  -1.2155
    -1.1668  -1.1584  -1.1584  -1.0843  -1.0843  -1.0475  -0.9815  -0.9815
    -0.9724  -0.9209  -0.9209  -0.8982  -0.8982  -0.6954  -0.5936  -0.5821
    -0.5820  -0.4724  -0.2693  -0.2692  -0.1715  -0.1493  -0.1492  -0.0487
    -0.0486  -0.0189  -0.0189   0.0097   0.0099   0.0099   0.1015   0.1016
     0.1186   0.1762   0.1763   0.3041   0.3677   0.3678   0.4689   0.4772
     0.4773   0.5327   0.5327   0.6642   0.7044   0.7640   0.7843   0.8019
     0.9252   1.2564   1.2642   1.2642   2.6737   2.7149   2.7149   3.2538
     3.2598   3.2598   3.5653   3.5654   4.1198   4.5518   4.7819   5.6222
     6.1738   6.1738   6.3633   6.5374   6.6737

     occupation numbers 
     1.0000   1.0000   1.0000   1.0000   1.0000   1.0000   1.0000   1.0000
     1.0000   1.0000   1.0000   1.0000   1.0000   1.0000   1.0000   1.0000
     1.0000   1.0000   1.0000   1.0000   1.0000   1.0000   1.0000   1.0000
     1.0000   1.0000   1.0000   1.0000   1.0000   1.0000   1.0000   1.0000
     1.0000   1.0000   1.0000   1.0000   1.0000   1.0000   1.0000   1.0000
     1.0000   1.0000   1.0000   1.0000   1.0000   1.0000   1.0000   1.0000
     1.0000   1.0000   1.0000   1.0000   1.0000   1.0000   1.0000   1.0000
     1.0000   1.0000   1.0000   1.0000   1.0000   1.0000   1.0000   1.0000
     1.0000   1.0000   1.0000   1.0000   1.0000   1.0000   1.0000   1.0000
     1.0000   1.0000   1.0000   1.0000   1.0000   1.0000   1.0000   1.0000
     1.0000   1.0000   1.0000   1.0000   1.0000   1.0000   1.0000   1.0000
     1.0000   1.0000   1.0000   1.0000   1.0000   1.0000   1.0000   1.0000
     1.0000   1.0000   1.0000   1.0000   1.0000   1.0000   1.0000   1.0000
     1.0000   1.0000   1.0000   1.0000   1.0000   1.0000   1.0000   1.0000
     1.0000   1.0000   1.0000   1.0000   1.0000   1.0000   1.0000   1.0000
     1.0000   1.0000   1.0000   1.0000   1.0000   1.0000   1.0000   1.0000
     1.0000   1.0000   1.0000   1.0000   1.0000   1.0000   1.0000   1.0000
     1.0000   1.0000   1.0000   1.0000   0.9987   0.9987   0.3069   0.2142
     0.2135   0.0033   0.0033   0.0000   0.0000   0.0000   0.0000   0.0000
     0.0000   0.0000   0.0000   0.0000   0.0000   0.0000   0.0000   0.0000
     0.0000   0.0000   0.0000   0.0000   0.0000   0.0000   0.0000   0.0000
     0.0000   0.0000   0.0000   0.0000   0.0000

          k = 0.2500 0.3536 0.0000 ( 24163 PWs)   bands (ev):

   -51.5378 -51.5354 -51.5330 -51.5306 -51.5221 -51.5127 -51.4553 -51.4544
   -51.4500 -51.4361 -51.4180 -51.4049 -51.3731 -51.3694 -51.3638 -51.3538
   -51.3427 -51.3349 -51.3319 -51.3141 -51.3115 -51.3113 -51.2996 -51.2853
   -51.2823 -51.2717 -51.2713 -51.2524 -51.2492 -51.2393 -51.2380 -51.2360
   -51.2281 -51.2220 -51.2065 -51.1938 -51.0430 -51.0233 -51.0210 -51.0125
   -50.9980 -50.9976 -50.9972 -50.9972 -50.9944 -50.9887 -50.9838 -50.9826
   -50.9824 -50.9784 -50.9754 -50.9750 -50.9725 -50.9715  -5.4468  -5.0200
    -4.4780  -4.1843  -4.1692  -4.0820  -4.0671  -3.7515  -3.4418  -3.4026
    -3.3850  -3.3191  -3.2966  -3.2636  -3.2010  -3.1939  -3.1740  -3.0675
    -3.0027  -2.9377  -2.8968  -2.8151  -2.6975  -2.6657  -2.6614  -2.6494
    -2.6452  -2.6133  -2.5929  -2.5617  -2.5563  -2.4874  -2.2083  -2.1649
    -2.1593  -2.0322  -2.0108  -1.9280  -1.8980  -1.7663  -1.6245  -1.5982
    -1.5407  -1.5177  -1.5156  -1.4732  -1.4680  -1.4663  -1.4575  -1.3314
    -1.1942  -1.1828  -1.1048  -1.0547  -1.0146  -0.9857  -0.9225  -0.8910
    -0.8777  -0.8300  -0.7994  -0.7698  -0.6839  -0.6764  -0.5709  -0.5564
    -0.5152  -0.4864  -0.4862  -0.4626  -0.2633  -0.2493  -0.2173  -0.1488
    -0.1382  -0.0947  -0.0886  -0.0273   0.0546   0.0973   0.1841   0.2125
     0.2547   0.3450   0.3532   0.3851   0.3861   0.3976   0.4094   0.4119
     0.4429   0.5009   0.5256   0.5637   0.6004   0.8755   1.0256   1.1992
     1.5170   1.5496   1.6595   2.0768   2.2613   2.3401   2.7301   3.1040
     3.6411   3.6737   4.4080   4.4452   4.6864   4.7099   4.9970   5.0791
     5.3633   5.5595   5.7661   5.8239   5.9540

     occupation numbers 
     1.0000   1.0000   1.0000   1.0000   1.0000   1.0000   1.0000   1.0000
     1.0000   1.0000   1.0000   1.0000   1.0000   1.0000   1.0000   1.0000
     1.0000   1.0000   1.0000   1.0000   1.0000   1.0000   1.0000   1.0000
     1.0000   1.0000   1.0000   1.0000   1.0000   1.0000   1.0000   1.0000
     1.0000   1.0000   1.0000   1.0000   1.0000   1.0000   1.0000   1.0000
     1.0000   1.0000   1.0000   1.0000   1.0000   1.0000   1.0000   1.0000
     1.0000   1.0000   1.0000   1.0000   1.0000   1.0000   1.0000   1.0000
     1.0000   1.0000   1.0000   1.0000   1.0000   1.0000   1.0000   1.0000
     1.0000   1.0000   1.0000   1.0000   1.0000   1.0000   1.0000   1.0000
     1.0000   1.0000   1.0000   1.0000   1.0000   1.0000   1.0000   1.0000
     1.0000   1.0000   1.0000   1.0000   1.0000   1.0000   1.0000   1.0000
     1.0000   1.0000   1.0000   1.0000   1.0000   1.0000   1.0000   1.0000
     1.0000   1.0000   1.0000   1.0000   1.0000   1.0000   1.0000   1.0000
     1.0000   1.0000   1.0000   1.0000   1.0000   1.0000   1.0000   1.0000
     1.0000   1.0000   1.0000   1.0000   1.0000   1.0000   1.0000   1.0000
     1.0000   1.0000   1.0000   1.0000   1.0000   1.0000   1.0000   1.0000
     1.0000   1.0000   1.0000   1.0000   1.0000   1.0000   1.0000   1.0000
     1.0000   0.9999   0.9998   0.9918   0.9910   0.9755   0.9403   0.9294
     0.6540   0.0536   0.0068   0.0001   0.0000   0.0000   0.0000   0.0000
     0.0000   0.0000   0.0000   0.0000   0.0000   0.0000   0.0000   0.0000
     0.0000   0.0000   0.0000   0.0000   0.0000   0.0000   0.0000   0.0000
     0.0000   0.0000   0.0000   0.0000   0.0000

          k = 0.2500-0.7071 0.0000 ( 24152 PWs)   bands (ev):

   -51.5495 -51.5494 -51.5429 -51.5427 -51.5359 -51.5358 -51.4064 -51.4064
   -51.4059 -51.4059 -51.3966 -51.3966 -51.3785 -51.3785 -51.3581 -51.3580
   -51.3541 -51.3541 -51.3445 -51.3445 -51.3316 -51.3316 -51.2976 -51.2975
   -51.2604 -51.2602 -51.2595 -51.2594 -51.2515 -51.2514 -51.2429 -51.2428
   -51.2231 -51.2231 -51.1980 -51.1980 -51.0349 -51.0348 -51.0178 -51.0178
   -50.9977 -50.9977 -50.9919 -50.9917 -50.9892 -50.9890 -50.9866 -50.9865
   -50.9829 -50.9828 -50.9748 -50.9747 -50.9716 -50.9716  -4.8981  -4.8981
    -4.4554  -4.4553  -3.8832  -3.8832  -3.5902  -3.5901  -3.5277  -3.5277
    -3.5019  -3.5018  -3.4397  -3.4396  -3.4051  -3.4050  -3.3969  -3.3968
    -3.2669  -3.2669  -3.0310  -3.0309  -2.7377  -2.7377  -2.6183  -2.6183
    -2.5292  -2.5292  -2.2899  -2.2898  -2.2406  -2.2406  -2.2377  -2.2377
    -2.1611  -2.1611  -2.0733  -2.0733  -1.9266  -1.9266  -1.7650  -1.7649
    -1.6623  -1.6622  -1.6187  -1.6187  -1.6083  -1.6082  -1.2729  -1.2729
    -1.2155  -1.2155  -0.9964  -0.9964  -0.9126  -0.9125  -0.9009  -0.9009
    -0.8751  -0.8750  -0.7784  -0.7784  -0.7139  -0.7139  -0.5707  -0.5706
    -0.5260  -0.5260  -0.3067  -0.3066  -0.2714  -0.2714  -0.2493  -0.2493
    -0.1634  -0.1634  -0.0022  -0.0022   0.0368   0.0368   0.1289   0.1289
     0.2706   0.2706   0.3400   0.3401   0.3682   0.3683   0.3930   0.3930
     0.4167   0.4167   0.6340   0.6341   0.6610   0.6610   1.5976   1.5976
     1.6089   1.6089   2.0797   2.0797   3.2201   3.2201   3.4973   3.4973
     3.7922   3.7922   4.0107   4.0108   4.5086   4.5087   5.1511   5.1511
     5.2315   5.2316   5.5515   5.5515   6.1302

     occupation numbers 
     1.0000   1.0000   1.0000   1.0000   1.0000   1.0000   1.0000   1.0000
     1.0000   1.0000   1.0000   1.0000   1.0000   1.0000   1.0000   1.0000
     1.0000   1.0000   1.0000   1.0000   1.0000   1.0000   1.0000   1.0000
     1.0000   1.0000   1.0000   1.0000   1.0000   1.0000   1.0000   1.0000
     1.0000   1.0000   1.0000   1.0000   1.0000   1.0000   1.0000   1.0000
     1.0000   1.0000   1.0000   1.0000   1.0000   1.0000   1.0000   1.0000
     1.0000   1.0000   1.0000   1.0000   1.0000   1.0000   1.0000   1.0000
     1.0000   1.0000   1.0000   1.0000   1.0000   1.0000   1.0000   1.0000
     1.0000   1.0000   1.0000   1.0000   1.0000   1.0000   1.0000   1.0000
     1.0000   1.0000   1.0000   1.0000   1.0000   1.0000   1.0000   1.0000
     1.0000   1.0000   1.0000   1.0000   1.0000   1.0000   1.0000   1.0000
     1.0000   1.0000   1.0000   1.0000   1.0000   1.0000   1.0000   1.0000
     1.0000   1.0000   1.0000   1.0000   1.0000   1.0000   1.0000   1.0000
     1.0000   1.0000   1.0000   1.0000   1.0000   1.0000   1.0000   1.0000
     1.0000   1.0000   1.0000   1.0000   1.0000   1.0000   1.0000   1.0000
     1.0000   1.0000   1.0000   1.0000   1.0000   1.0000   1.0000   1.0000
     1.0000   1.0000   1.0000   1.0000   1.0000   1.0000   1.0000   1.0000
     1.0000   1.0000   1.0000   1.0000   0.9986   0.9986   0.9833   0.9833
     0.9043   0.9042   0.0000   0.0000   0.0000   0.0000   0.0000   0.0000
     0.0000   0.0000   0.0000   0.0000   0.0000   0.0000   0.0000   0.0000
     0.0000   0.0000   0.0000   0.0000   0.0000   0.0000   0.0000   0.0000
     0.0000   0.0000   0.0000   0.0000   0.0000

          k =-0.5000 0.0000 0.0000 ( 24172 PWs)   bands (ev):

   -51.5018 -51.5017 -51.5016 -51.5016 -51.4979 -51.4977 -51.4977 -51.4976
   -51.4706 -51.4704 -51.4704 -51.4704 -51.3669 -51.3669 -51.3514 -51.3513
   -51.3190 -51.3189 -51.3050 -51.3049 -51.3039 -51.3038 -51.3038 -51.3038
   -51.2866 -51.2866 -51.2535 -51.2534 -51.2534 -51.2533 -51.2221 -51.2220
   -51.2219 -51.2219 -51.2096 -51.2095 -51.0353 -51.0352 -51.0085 -51.0084
   -51.0084 -51.0083 -50.9911 -50.9910 -50.9909 -50.9908 -50.9893 -50.9891
   -50.9752 -50.9752 -50.9751 -50.9750 -50.9737 -50.9737  -5.4753  -5.4753
    -4.5125  -4.5124  -4.2729  -4.2729  -3.5112  -3.5112  -3.5111  -3.5111
    -3.1093  -3.1093  -3.1093  -3.1092  -3.0273  -3.0273  -3.0273  -3.0273
    -2.9412  -2.9412  -2.9411  -2.9411  -2.9065  -2.9065  -2.9065  -2.9065
    -2.6670  -2.6670  -2.5161  -2.5161  -2.5161  -2.5160  -2.0147  -2.0147
    -1.9790  -1.9789  -1.9297  -1.9297  -1.5332  -1.5332  -1.5332  -1.5331
    -1.4050  -1.4050  -1.3142  -1.3142  -1.3142  -1.3141  -1.2282  -1.2282
    -1.1690  -1.1690  -1.1689  -1.1689  -1.0847  -1.0846  -0.9632  -0.9632
    -0.9632  -0.9632  -0.8125  -0.8125  -0.7816  -0.7815  -0.7814  -0.7814
    -0.5655  -0.5655  -0.2036  -0.2035  -0.2035  -0.2034  -0.0581  -0.0581
    -0.0504  -0.0503  -0.0503  -0.0502   0.0553   0.0553   0.0554   0.0554
     0.2820   0.2820   0.2820   0.2820   0.3691   0.3691   0.3734   0.3734
     0.4788   0.4788   0.4788   0.4789   0.7375   0.7375   0.7836   0.7836
     0.9210   0.9210   1.9417   1.9417   1.9417   1.9418   3.3707   3.3708
     3.4373   3.4373   3.4374   3.4374   4.4634   4.4634   4.6654   4.6655
     6.4708   6.4711   6.6392   6.6393   6.6393

     occupation numbers 
     1.0000   1.0000   1.0000   1.0000   1.0000   1.0000   1.0000   1.0000
     1.0000   1.0000   1.0000   1.0000   1.0000   1.0000   1.0000   1.0000
     1.0000   1.0000   1.0000   1.0000   1.0000   1.0000   1.0000   1.0000
     1.0000   1.0000   1.0000   1.0000   1.0000   1.0000   1.0000   1.0000
     1.0000   1.0000   1.0000   1.0000   1.0000   1.0000   1.0000   1.0000
     1.0000   1.0000   1.0000   1.0000   1.0000   1.0000   1.0000   1.0000
     1.0000   1.0000   1.0000   1.0000   1.0000   1.0000   1.0000   1.0000
     1.0000   1.0000   1.0000   1.0000   1.0000   1.0000   1.0000   1.0000
     1.0000   1.0000   1.0000   1.0000   1.0000   1.0000   1.0000   1.0000
     1.0000   1.0000   1.0000   1.0000   1.0000   1.0000   1.0000   1.0000
     1.0000   1.0000   1.0000   1.0000   1.0000   1.0000   1.0000   1.0000
     1.0000   1.0000   1.0000   1.0000   1.0000   1.0000   1.0000   1.0000
     1.0000   1.0000   1.0000   1.0000   1.0000   1.0000   1.0000   1.0000
     1.0000   1.0000   1.0000   1.0000   1.0000   1.0000   1.0000   1.0000
     1.0000   1.0000   1.0000   1.0000   1.0000   1.0000   1.0000   1.0000
     1.0000   1.0000   1.0000   1.0000   1.0000   1.0000   1.0000   1.0000
     1.0000   1.0000   1.0000   1.0000   1.0000   1.0000   1.0000   1.0000
     1.0000   1.0000   1.0000   1.0000   0.9984   0.9984   0.9975   0.9975
     0.1990   0.1988   0.1984   0.1982   0.0000   0.0000   0.0000   0.0000
     0.0000   0.0000   0.0000   0.0000   0.0000   0.0000   0.0000   0.0000
     0.0000   0.0000   0.0000   0.0000   0.0000   0.0000   0.0000   0.0000
     0.0000   0.0000   0.0000   0.0000   0.0000

          k =-0.5000 0.3536 0.0000 ( 24122 PWs)   bands (ev):

   -51.5365 -51.5364 -51.5328 -51.5327 -51.5167 -51.5166 -51.4552 -51.4551
   -51.4440 -51.4439 -51.4102 -51.4101 -51.3729 -51.3728 -51.3546 -51.3546
   -51.3432 -51.3431 -51.3266 -51.3265 -51.3042 -51.3042 -51.2924 -51.2923
   -51.2796 -51.2796 -51.2654 -51.2653 -51.2447 -51.2446 -51.2368 -51.2368
   -51.2125 -51.2125 -51.2084 -51.2083 -51.0333 -51.0332 -51.0189 -51.0189
   -50.9975 -50.9975 -50.9920 -50.9918 -50.9901 -50.9899 -50.9893 -50.9892
   -50.9800 -50.9799 -50.9733 -50.9733 -50.9729 -50.9729  -5.2748  -5.2748
    -4.2957  -4.2956  -4.0672  -4.0672  -4.0015  -4.0015  -3.4083  -3.4083
    -3.3546  -3.3545  -3.2563  -3.2563  -3.1383  -3.1383  -3.1028  -3.1028
    -3.0078  -3.0078  -2.9337  -2.9337  -2.6979  -2.6979  -2.6473  -2.6473
    -2.6272  -2.6272  -2.5876  -2.5876  -2.5402  -2.5402  -2.1335  -2.1335
    -1.9768  -1.9768  -1.9742  -1.9742  -1.9433  -1.9432  -1.6251  -1.6251
    -1.5164  -1.5164  -1.4733  -1.4731  -1.4589  -1.4589  -1.2198  -1.2197
    -1.2037  -1.2037  -1.0722  -1.0722  -1.0413  -1.0413  -1.0382  -1.0381
    -0.8425  -0.8425  -0.7608  -0.7608  -0.6047  -0.6046  -0.6010  -0.6010
    -0.5911  -0.5910  -0.5004  -0.5004  -0.1934  -0.1934  -0.1683  -0.1683
    -0.1485  -0.1485   0.0355   0.0356   0.0887   0.0887   0.1836   0.1836
     0.2231   0.2231   0.3525   0.3525   0.3875   0.3875   0.3956   0.3956
     0.4582   0.4583   0.5221   0.5221   0.7823   0.7823   1.2568   1.2568
     1.4118   1.4118   1.5744   1.5744   2.5408   2.5408   2.9037   2.9038
     3.7353   3.7354   4.5969   4.5969   4.8041   4.8041   4.8419   4.8419
     5.5280   5.5885   5.5886   6.0229   6.0237

     occupation numbers 
     1.0000   1.0000   1.0000   1.0000   1.0000   1.0000   1.0000   1.0000
     1.0000   1.0000   1.0000   1.0000   1.0000   1.0000   1.0000   1.0000
     1.0000   1.0000   1.0000   1.0000   1.0000   1.0000   1.0000   1.0000
     1.0000   1.0000   1.0000   1.0000   1.0000   1.0000   1.0000   1.0000
     1.0000   1.0000   1.0000   1.0000   1.0000   1.0000   1.0000   1.0000
     1.0000   1.0000   1.0000   1.0000   1.0000   1.0000   1.0000   1.0000
     1.0000   1.0000   1.0000   1.0000   1.0000   1.0000   1.0000   1.0000
     1.0000   1.0000   1.0000   1.0000   1.0000   1.0000   1.0000   1.0000
     1.0000   1.0000   1.0000   1.0000   1.0000   1.0000   1.0000   1.0000
     1.0000   1.0000   1.0000   1.0000   1.0000   1.0000   1.0000   1.0000
     1.0000   1.0000   1.0000   1.0000   1.0000   1.0000   1.0000   1.0000
     1.0000   1.0000   1.0000   1.0000   1.0000   1.0000   1.0000   1.0000
     1.0000   1.0000   1.0000   1.0000   1.0000   1.0000   1.0000   1.0000
     1.0000   1.0000   1.0000   1.0000   1.0000   1.0000   1.0000   1.0000
     1.0000   1.0000   1.0000   1.0000   1.0000   1.0000   1.0000   1.0000
     1.0000   1.0000   1.0000   1.0000   1.0000   1.0000   1.0000   1.0000
     1.0000   1.0000   1.0000   1.0000   1.0000   1.0000   1.0000   1.0000
     1.0000   1.0000   0.9998   0.9998   0.9898   0.9898   0.9791   0.9791
     0.4474   0.4460   0.0095   0.0095   0.0000   0.0000   0.0000   0.0000
     0.0000   0.0000   0.0000   0.0000   0.0000   0.0000   0.0000   0.0000
     0.0000   0.0000   0.0000   0.0000   0.0000   0.0000   0.0000   0.0000
     0.0000   0.0000   0.0000   0.0000   0.0000

          k =-0.5000-0.7071 0.0000 ( 24164 PWs)   bands (ev):

   -51.5505 -51.5504 -51.5389 -51.5389 -51.5388 -51.5387 -51.4069 -51.4069
   -51.4069 -51.4068 -51.3885 -51.3884 -51.3883 -51.3882 -51.3500 -51.3499
   -51.3499 -51.3498 -51.3449 -51.3449 -51.3448 -51.3448 -51.2787 -51.2786
   -51.2786 -51.2785 -51.2567 -51.2566 -51.2566 -51.2564 -51.2416 -51.2415
   -51.2083 -51.2082 -51.2082 -51.2082 -51.0276 -51.0276 -51.0275 -51.0275
   -50.9923 -50.9921 -50.9896 -50.9894 -50.9894 -50.9893 -50.9877 -50.9877
   -50.9875 -50.9875 -50.9728 -50.9727 -50.9727 -50.9727  -4.7207  -4.7207
    -4.7206  -4.7206  -3.6969  -3.6968  -3.6968  -3.6967  -3.5044  -3.5044
    -3.5043  -3.5043  -3.4440  -3.4439  -3.3863  -3.3863  -3.3862  -3.3862
    -3.1862  -3.1862  -3.1862  -3.1862  -2.6928  -2.6927  -2.6266  -2.6266
    -2.6266  -2.6266  -2.1562  -2.1561  -2.1561  -2.1561  -2.1534  -2.1534
    -2.1533  -2.1533  -2.1132  -2.1132  -2.1132  -2.1132  -1.6969  -1.6969
    -1.6969  -1.6968  -1.6439  -1.6439  -1.6439  -1.6438  -1.1109  -1.1109
    -1.1108  -1.1108  -1.0856  -1.0855  -1.0855  -1.0855  -0.8675  -0.8675
    -0.8093  -0.8093  -0.8092  -0.8092  -0.6658  -0.6656  -0.6058  -0.6057
    -0.6057  -0.6057  -0.2578  -0.2578  -0.2577  -0.2577  -0.1189  -0.1189
    -0.1189  -0.1189  -0.0836  -0.0835  -0.0835  -0.0835   0.1978   0.1979
     0.1979   0.1979   0.3152   0.3153   0.3153   0.3153   0.4074   0.4074
     0.4074   0.4074   0.6883   0.6884   1.0403   1.0404   1.0404   1.0404
     1.8310   1.8310   1.8310   1.8310   3.3427   3.3427   3.3427   3.3427
     3.8524   3.8524   4.5687   4.5687   4.5688   4.5688   5.3193   5.3193
     5.3194   5.3194   5.6125   5.6125   5.6126

     occupation numbers 
     1.0000   1.0000   1.0000   1.0000   1.0000   1.0000   1.0000   1.0000
     1.0000   1.0000   1.0000   1.0000   1.0000   1.0000   1.0000   1.0000
     1.0000   1.0000   1.0000   1.0000   1.0000   1.0000   1.0000   1.0000
     1.0000   1.0000   1.0000   1.0000   1.0000   1.0000   1.0000   1.0000
     1.0000   1.0000   1.0000   1.0000   1.0000   1.0000   1.0000   1.0000
     1.0000   1.0000   1.0000   1.0000   1.0000   1.0000   1.0000   1.0000
     1.0000   1.0000   1.0000   1.0000   1.0000   1.0000   1.0000   1.0000
     1.0000   1.0000   1.0000   1.0000   1.0000   1.0000   1.0000   1.0000
     1.0000   1.0000   1.0000   1.0000   1.0000   1.0000   1.0000   1.0000
     1.0000   1.0000   1.0000   1.0000   1.0000   1.0000   1.0000   1.0000
     1.0000   1.0000   1.0000   1.0000   1.0000   1.0000   1.0000   1.0000
     1.0000   1.0000   1.0000   1.0000   1.0000   1.0000   1.0000   1.0000
     1.0000   1.0000   1.0000   1.0000   1.0000   1.0000   1.0000   1.0000
     1.0000   1.0000   1.0000   1.0000   1.0000   1.0000   1.0000   1.0000
     1.0000   1.0000   1.0000   1.0000   1.0000   1.0000   1.0000   1.0000
     1.0000   1.0000   1.0000   1.0000   1.0000   1.0000   1.0000   1.0000
     1.0000   1.0000   1.0000   1.0000   1.0000   1.0000   1.0000   1.0000
     1.0000   1.0000   1.0000   1.0000   1.0000   1.0000   0.9483   0.9483
     0.9483   0.9482   0.0000   0.0000   0.0000   0.0000   0.0000   0.0000
     0.0000   0.0000   0.0000   0.0000   0.0000   0.0000   0.0000   0.0000
     0.0000   0.0000   0.0000   0.0000   0.0000   0.0000   0.0000   0.0000
     0.0000   0.0000   0.0000   0.0000   0.0000

     the Fermi energy is     0.4544 ev

!    total energy              =   -3790.61523055 Ry
     estimated scf accuracy    <       0.00000070 Ry
     smearing contrib. (-TS)   =      -0.00424059 Ry
     internal energy E=F+TS    =   -3790.61098996 Ry

     The total energy is F=E-TS. E is the sum of the following terms:
     one-electron contribution =   -7929.00802214 Ry
     hartree contribution      =    4004.31289887 Ry
     xc contribution           =   -1020.75592934 Ry
     ewald contribution        =    1154.84006264 Ry

     convergence has been achieved in  16 iterations

     negative rho (up, down):  3.138E+00 0.000E+00

     Forces acting on atoms (cartesian axes, Ry/au):

     atom    1 type  1   force =     0.00000000    0.00000000    0.08307323
     atom    2 type  1   force =     0.00000085   -0.00001711   -0.08308546
     atom    3 type  1   force =     0.00000000   -0.00003154    0.08306169
     atom    4 type  1   force =     0.00002118    0.00000000   -0.08308448
     atom    5 type  1   force =     0.00000000    0.00003154    0.08306169
     atom    6 type  1   force =     0.00000085    0.00001711   -0.08308546
     atom    7 type  1   force =    -0.00001998    0.00000000    0.08310240
     atom    8 type  1   force =     0.00000000    0.00002128   -0.08305840
     atom    9 type  1   force =     0.00001934    0.00001163    0.08307234
     atom   10 type  1   force =     0.00000000    0.00000000   -0.08306316
     atom   11 type  1   force =     0.00001934   -0.00001163    0.08307234
     atom   12 type  1   force =     0.00000000   -0.00002128   -0.08305840
     atom   13 type  1   force =     0.00001998    0.00000000    0.08310240
     atom   14 type  1   force =    -0.00000085   -0.00001711   -0.08308546
     atom   15 type  1   force =    -0.00001934    0.00001163    0.08307234
     atom   16 type  1   force =    -0.00002118    0.00000000   -0.08308448
     atom   17 type  1   force =    -0.00001934   -0.00001163    0.08307234
     atom   18 type  1   force =    -0.00000085    0.00001711   -0.08308546
     The non-local contrib.  to forces
     atom    1 type  1   force =     0.00000000    0.00000000   -0.14595908
     atom    2 type  1   force =    -0.00001107   -0.00001558    0.14591981
     atom    3 type  1   force =     0.00000000   -0.00001400   -0.14598946
     atom    4 type  1   force =     0.00000167    0.00000000    0.14589811
     atom    5 type  1   force =     0.00000000    0.00001400   -0.14598946
     atom    6 type  1   force =    -0.00001107    0.00001558    0.14591981
     atom    7 type  1   force =    -0.00001759    0.00000000   -0.14595967
     atom    8 type  1   force =    -0.00000000    0.00001194    0.14590476
     atom    9 type  1   force =    -0.00000107    0.00000481   -0.14597680
     atom   10 type  1   force =     0.00000000    0.00000000    0.14590106
     atom   11 type  1   force =    -0.00000107   -0.00000481   -0.14597680
     atom   12 type  1   force =     0.00000000   -0.00001194    0.14590476
     atom   13 type  1   force =     0.00001759    0.00000000   -0.14595967
     atom   14 type  1   force =     0.00001107   -0.00001558    0.14591981
     atom   15 type  1   force =     0.00000107    0.00000481   -0.14597680
     atom   16 type  1   force =    -0.00000167    0.00000000    0.14589811
     atom   17 type  1   force =     0.00000107   -0.00000481   -0.14597680
     atom   18 type  1   force =     0.00001107    0.00001558    0.14591981
     The ionic contribution  to forces
     atom    1 type  1   force =    -0.00000000    0.00005644  -45.81520459
     atom    2 type  1   force =    -0.00000000    0.00006065   45.81517610
     atom    3 type  1   force =    -0.00000000    0.00001110  -45.81517610
     atom    4 type  1   force =    -0.00000000   -0.00001110   45.81517610
     atom    5 type  1   force =    -0.00000000   -0.00006065  -45.81517610
     atom    6 type  1   force =     0.00000000   -0.00005644   45.81520459
     atom    7 type  1   force =     0.00000000    0.00005644  -45.81520459
     atom    8 type  1   force =    -0.00000000    0.00006065   45.81517610
     atom    9 type  1   force =    -0.00000000    0.00001110  -45.81517610
     atom   10 type  1   force =    -0.00000000   -0.00001110   45.81517610
     atom   11 type  1   force =     0.00000000   -0.00006065  -45.81517610
     atom   12 type  1   force =    -0.00000000   -0.00005644   45.81520459
     atom   13 type  1   force =     0.00000000    0.00005644  -45.81520459
     atom   14 type  1   force =     0.00000000    0.00006065   45.81517610
     atom   15 type  1   force =     0.00000000    0.00001110  -45.81517610
     atom   16 type  1   force =     0.00000000   -0.00001110   45.81517610
     atom   17 type  1   force =     0.00000000   -0.00006065  -45.81517610
     atom   18 type  1   force =     0.00000000   -0.00005644   45.81520459
     The local contribution  to forces
     atom    1 type  1   force =    -0.00000000    0.00000000   46.02386236
     atom    2 type  1   force =    -0.00017975    0.00000789  -46.02308751
     atom    3 type  1   force =    -0.00000000   -0.00009932   46.02433213
     atom    4 type  1   force =    -0.00032042   -0.00028496  -46.02284197
     atom    5 type  1   force =    -0.00000000   -0.00047059   46.02433213
     atom    6 type  1   force =    -0.00017975   -0.00057779  -46.02308751
     atom    7 type  1   force =     0.00013413   -0.00000000   46.02421898
     atom    8 type  1   force =     0.00000000   -0.00062714  -46.02260327
     atom    9 type  1   force =    -0.00025678   -0.00031939   46.02427198
     atom   10 type  1   force =     0.00000000   -0.00028496  -46.02260812
     atom   11 type  1   force =    -0.00025678   -0.00025051   46.02427198
     atom   12 type  1   force =     0.00000000    0.00005722  -46.02260327
     atom   13 type  1   force =    -0.00013413   -0.00000000   46.02421898
     atom   14 type  1   force =     0.00017975    0.00000789  -46.02308751
     atom   15 type  1   force =     0.00025678   -0.00031939   46.02427198
     atom   16 type  1   force =     0.00032042   -0.00028496  -46.02284197
     atom   17 type  1   force =     0.00025678   -0.00025051   46.02427198
     atom   18 type  1   force =     0.00017975   -0.00057779  -46.02308751
     The core correction contribution to forces
     atom    1 type  1   force =     0.00000000    0.00000000    0.01988250
     atom    2 type  1   force =    -0.00000646    0.00000986   -0.01988392
     atom    3 type  1   force =     0.00000000    0.00000866    0.01987908
     atom    4 type  1   force =    -0.00000584    0.00001017   -0.01989438
     atom    5 type  1   force =     0.00000000    0.00001167    0.01987908
     atom    6 type  1   force =    -0.00000646    0.00001047   -0.01988392
     atom    7 type  1   force =    -0.00000754   -0.00000000    0.01988726
     atom    8 type  1   force =    -0.00000000    0.00000996   -0.01988480
     atom    9 type  1   force =    -0.00000524    0.00001083    0.01988000
     atom   10 type  1   force =     0.00000000    0.00001017   -0.01988664
     atom   11 type  1   force =    -0.00000524    0.00000951    0.01988000
     atom   12 type  1   force =    -0.00000000    0.00001037   -0.01988480
     atom   13 type  1   force =     0.00000754   -0.00000000    0.01988726
     atom   14 type  1   force =     0.00000646    0.00000986   -0.01988392
     atom   15 type  1   force =     0.00000524    0.00001083    0.01988000
     atom   16 type  1   force =     0.00000584    0.00001017   -0.01989438
     atom   17 type  1   force =     0.00000524    0.00000951    0.01988000
     atom   18 type  1   force =     0.00000646    0.00001047   -0.01988392
     The Hubbard contrib.    to forces
     atom    1 type  1   force =     0.00000000    0.00000000    0.00000000
     atom    2 type  1   force =     0.00000000    0.00000000    0.00000000
     atom    3 type  1   force =     0.00000000    0.00000000    0.00000000
     atom    4 type  1   force =     0.00000000    0.00000000    0.00000000
     atom    5 type  1   force =     0.00000000    0.00000000    0.00000000
     atom    6 type  1   force =     0.00000000    0.00000000    0.00000000
     atom    7 type  1   force =     0.00000000    0.00000000    0.00000000
     atom    8 type  1   force =     0.00000000    0.00000000    0.00000000
     atom    9 type  1   force =     0.00000000    0.00000000    0.00000000
     atom   10 type  1   force =     0.00000000    0.00000000    0.00000000
     atom   11 type  1   force =     0.00000000    0.00000000    0.00000000
     atom   12 type  1   force =     0.00000000    0.00000000    0.00000000
     atom   13 type  1   force =     0.00000000    0.00000000    0.00000000
     atom   14 type  1   force =     0.00000000    0.00000000    0.00000000
     atom   15 type  1   force =     0.00000000    0.00000000    0.00000000
     atom   16 type  1   force =     0.00000000    0.00000000    0.00000000
     atom   17 type  1   force =     0.00000000    0.00000000    0.00000000
     atom   18 type  1   force =     0.00000000    0.00000000    0.00000000
     The SCF correction term to forces
     atom    1 type  1   force =     0.00000000   -0.00000003    0.00046053
     atom    2 type  1   force =     0.00019813   -0.00035254   -0.00125569
     atom    3 type  1   force =     0.00000000   -0.00023746   -0.00001547
     atom    4 type  1   force =     0.00034577    0.00000008   -0.00145384
     atom    5 type  1   force =     0.00000000    0.00023762   -0.00001547
     atom    6 type  1   force =     0.00019813    0.00035268   -0.00125570
     atom    7 type  1   force =    -0.00012898   -0.00000003    0.00012892
     atom    8 type  1   force =    -0.00000000    0.00029326   -0.00169693
     atom    9 type  1   force =     0.00028243    0.00000481    0.00004175
     atom   10 type  1   force =    -0.00000000    0.00000008   -0.00167708
     atom   11 type  1   force =     0.00028242   -0.00000465    0.00004175
     atom   12 type  1   force =    -0.00000000   -0.00029311   -0.00169695
     atom   13 type  1   force =     0.00012898   -0.00000003    0.00012892
     atom   14 type  1   force =    -0.00019813   -0.00035254   -0.00125569
     atom   15 type  1   force =    -0.00028243    0.00000481    0.00004175
     atom   16 type  1   force =    -0.00034577    0.00000008   -0.00145384
     atom   17 type  1   force =    -0.00028242   -0.00000465    0.00004175
     atom   18 type  1   force =    -0.00019813    0.00035268   -0.00125570

     Total force =     0.352465     Total SCF correction =     0.004571


     Computing stress (Cartesian axis) and pressure


     negative rho (up, down):  3.138E+00 0.000E+00
          total   stress  (Ry/bohr**3)                   (kbar)     P=      -63.10
  -0.00037460   0.00000000   0.00000000          -55.11        0.00        0.00
   0.00000000  -0.00060839   0.00000000            0.00      -89.50        0.00
   0.00000000   0.00000000  -0.00030387            0.00        0.00      -44.70

     kinetic stress (kbar)  11553.75      0.00      0.00
                                0.00  11362.96      0.00
                                0.00      0.00  11766.11

     local   stress (kbar)-113608.51     -0.00     -0.00
                               -0.00-120524.27      0.00
                               -0.00      0.00 121983.01

     nonloc. stress (kbar)   -137.37      0.00      0.00
                                0.00   -106.51      0.00
                                0.00      0.00    -55.02

     hartree stress (kbar)  59360.86      0.00     -0.00
                                0.00  62025.88      0.00
                               -0.00      0.00 -53692.17

     exc-cor stress (kbar)   8511.74      0.00      0.00
                                0.00   8516.62     -0.00
                                0.00     -0.00   8508.22

     corecor stress (kbar) -11726.94      0.00      0.00
                                0.00 -11717.79     -0.00
                                0.00     -0.00 -11732.93

     ewald   stress (kbar)  45991.37     -0.00      0.00
                               -0.00  50353.61     -0.00
                                0.00     -0.00 -76821.93

     hubbard stress (kbar)      0.00      0.00      0.00
                                0.00      0.00      0.00
                                0.00      0.00      0.00

     DFT-D   stress (kbar)      0.00      0.00      0.00
                                0.00      0.00      0.00
                                0.00      0.00      0.00

     XDM     stress (kbar)      0.00      0.00      0.00
                                0.00      0.00      0.00
                                0.00      0.00      0.00

     dft-nl  stress (kbar)      0.00      0.00      0.00
                                0.00      0.00      0.00
                                0.00      0.00      0.00

     TS-vdW  stress (kbar)      0.00      0.00      0.00
                                0.00      0.00      0.00
                                0.00      0.00      0.00



     BFGS Geometry Optimization
     Energy error            =      0.0E+00
     Gradient error          =      8.3E-02

     number of scf cycles    =   1
     number of bfgs steps    =   0

     energy   new            =   -3790.6152305492 Ry

     new trust radius        =       0.0831024020 bohr
     new conv_thr            =       0.0000010000 Ry


ATOMIC_POSITIONS (angstrom)
Pt            0.0000000000        0.0000000000        0.0439604586
Pt            1.9883854524        1.4059914449        1.3620335664
Pt            0.0000000000        2.8119843098        0.0439543559
Pt            1.9883962072        4.2180015000        1.3620340881
Pt            0.0000000000        5.6240186902        0.0439543559
Pt            1.9883854524        7.0300115551        1.3620335664
Pt            3.9767594259        0.0000000000        0.0439758961
Pt            5.9651550000        1.4060117626        1.3620478886
Pt            3.9767802365        2.8120071566        0.0439599874
Pt            5.9651550000        4.2180015000        1.3620453690
Pt            3.9767802365        5.6239958434        0.0439599874
Pt            5.9651550000        7.0299912374        1.3620478886
Pt            7.9535505741        0.0000000000        0.0439758961
Pt            9.9419245476        1.4059914449        1.3620335664
Pt            7.9535297635        2.8120071566        0.0439599874
Pt            9.9419137928        4.2180015000        1.3620340881
Pt            7.9535297635        5.6239958434        0.0439599874
Pt            9.9419245476        7.0300115551        1.3620335664



     Writing output data file ./surface.save/
     NEW-OLD atomic charge density approx. for the potential

     negative rho (up, down):  3.195E+00 0.000E+00

     total cpu time spent up to now is       90.1 secs

     Self-consistent Calculation

     iteration #  1     ecut=    30.00 Ry     beta= 0.30
     Davidson diagonalization with overlap
     ethr =  1.00E-06,  avg # of iterations =  9.1

     negative rho (up, down):  3.193E+00 0.000E+00

     total cpu time spent up to now is      106.6 secs

     total energy              =   -3790.73748018 Ry
     estimated scf accuracy    <       0.01254157 Ry

     iteration #  2     ecut=    30.00 Ry     beta= 0.30
     Davidson diagonalization with overlap
     ethr =  4.35E-06,  avg # of iterations =  2.0

     negative rho (up, down):  3.193E+00 0.000E+00

     total cpu time spent up to now is      111.4 secs

     total energy              =   -3790.73752895 Ry
     estimated scf accuracy    <       0.00501113 Ry

     iteration #  3     ecut=    30.00 Ry     beta= 0.30
     Davidson diagonalization with overlap
     c_bands:  1 eigenvalues not converged
     ethr =  1.74E-06,  avg # of iterations =  5.2

     negative rho (up, down):  3.192E+00 0.000E+00

     total cpu time spent up to now is      117.0 secs

     total energy              =   -3790.73364773 Ry
     estimated scf accuracy    <       0.17578533 Ry

     iteration #  4     ecut=    30.00 Ry     beta= 0.30
     Davidson diagonalization with overlap
     ethr =  1.74E-06,  avg # of iterations =  2.9

     negative rho (up, down):  3.192E+00 0.000E+00

     total cpu time spent up to now is      121.9 secs

     total energy              =   -3790.73728796 Ry
     estimated scf accuracy    <       0.02611622 Ry

     iteration #  5     ecut=    30.00 Ry     beta= 0.30
     Davidson diagonalization with overlap
     ethr =  1.74E-06,  avg # of iterations =  1.0

     negative rho (up, down):  3.192E+00 0.000E+00

     total cpu time spent up to now is      125.9 secs

     total energy              =   -3790.73807090 Ry
     estimated scf accuracy    <       0.00266215 Ry

     iteration #  6     ecut=    30.00 Ry     beta= 0.30
     Davidson diagonalization with overlap
     ethr =  9.24E-07,  avg # of iterations =  1.7

     negative rho (up, down):  3.192E+00 0.000E+00

     total cpu time spent up to now is      130.5 secs

     total energy              =   -3790.73791788 Ry
     estimated scf accuracy    <       0.00762356 Ry

     iteration #  7     ecut=    30.00 Ry     beta= 0.30
     Davidson diagonalization with overlap
     ethr =  9.24E-07,  avg # of iterations =  1.0

     negative rho (up, down):  3.192E+00 0.000E+00

     total cpu time spent up to now is      134.6 secs

     total energy              =   -3790.73825173 Ry
     estimated scf accuracy    <       0.00079518 Ry

     iteration #  8     ecut=    30.00 Ry     beta= 0.30
     Davidson diagonalization with overlap
     ethr =  2.76E-07,  avg # of iterations =  1.0

     negative rho (up, down):  3.192E+00 0.000E+00

     total cpu time spent up to now is      138.7 secs

     total energy              =   -3790.73830040 Ry
     estimated scf accuracy    <       0.00014316 Ry

     iteration #  9     ecut=    30.00 Ry     beta= 0.30
     Davidson diagonalization with overlap
     ethr =  4.97E-08,  avg # of iterations =  1.1

     negative rho (up, down):  3.192E+00 0.000E+00

     total cpu time spent up to now is      142.9 secs

     total energy              =   -3790.73830728 Ry
     estimated scf accuracy    <       0.00015513 Ry

     iteration # 10     ecut=    30.00 Ry     beta= 0.30
     Davidson diagonalization with overlap
     ethr =  4.97E-08,  avg # of iterations =  1.0

     negative rho (up, down):  3.192E+00 0.000E+00

     total cpu time spent up to now is      146.9 secs

     total energy              =   -3790.73831552 Ry
     estimated scf accuracy    <       0.00000922 Ry

     iteration # 11     ecut=    30.00 Ry     beta= 0.30
     Davidson diagonalization with overlap
     ethr =  3.20E-09,  avg # of iterations =  1.6

     negative rho (up, down):  3.192E+00 0.000E+00

     total cpu time spent up to now is      151.4 secs

     total energy              =   -3790.73831650 Ry
     estimated scf accuracy    <       0.00000711 Ry

     iteration # 12     ecut=    30.00 Ry     beta= 0.30
     Davidson diagonalization with overlap
     ethr =  2.47E-09,  avg # of iterations =  1.0

     negative rho (up, down):  3.192E+00 0.000E+00

     total cpu time spent up to now is      155.5 secs

     total energy              =   -3790.73831691 Ry
     estimated scf accuracy    <       0.00000137 Ry

     iteration # 13     ecut=    30.00 Ry     beta= 0.30
     Davidson diagonalization with overlap
     ethr =  4.74E-10,  avg # of iterations =  1.2

     negative rho (up, down):  3.192E+00 0.000E+00

     total cpu time spent up to now is      159.7 secs

     total energy              =   -3790.73831693 Ry
     estimated scf accuracy    <       0.00000324 Ry

     iteration # 14     ecut=    30.00 Ry     beta= 0.30
     Davidson diagonalization with overlap
     ethr =  4.74E-10,  avg # of iterations =  1.0

     negative rho (up, down):  3.192E+00 0.000E+00

     total cpu time spent up to now is      163.8 secs

     total energy              =   -3790.73831700 Ry
     estimated scf accuracy    <       0.00000789 Ry

     iteration # 15     ecut=    30.00 Ry     beta= 0.30
     Davidson diagonalization with overlap
     ethr =  4.74E-10,  avg # of iterations =  1.0

     negative rho (up, down):  3.192E+00 0.000E+00

     total cpu time spent up to now is      167.9 secs

     End of self-consistent calculation

          k = 0.0000 0.0000 0.0000 ( 24099 PWs)   bands (ev):

   -51.5863 -51.5862 -51.5861 -51.5861 -51.5740 -51.5739 -51.5624 -51.5623
   -51.5622 -51.5622 -51.5299 -51.5298 -51.5030 -51.4625 -51.4625 -51.4335
   -51.4311 -51.4311 -51.4103 -51.4102 -51.3811 -51.3810 -51.3810 -51.3810
   -51.3642 -51.3641 -51.3556 -51.3556 -51.3409 -51.3235 -51.3235 -51.3234
   -51.3234 -51.3152 -51.3151 -51.2714 -51.1111 -51.0695 -51.0695 -51.0666
   -51.0665 -51.0606 -51.0605 -51.0604 -51.0604 -51.0401 -51.0400 -51.0400
   -51.0400 -51.0360 -51.0359 -51.0321 -51.0313 -51.0312  -5.8818  -5.1003
    -5.1002  -4.4663  -4.4663  -4.4431  -3.8447  -3.8447  -3.4853  -3.4853
    -3.4852  -3.4852  -3.3775  -3.3775  -3.2015  -3.2014  -3.2000  -3.1999
    -3.1999  -3.1998  -3.1126  -3.1126  -2.8769  -2.8769  -2.8768  -2.8768
    -2.6935  -2.6414  -2.6414  -2.6413  -2.6413  -2.6210  -2.6210  -2.2344
    -1.9585  -1.9535  -1.9535  -1.7648  -1.7648  -1.7648  -1.7648  -1.5809
    -1.5809  -1.4831  -1.4779  -1.4779  -1.4525  -1.4525  -1.4398  -1.4398
    -1.4263  -1.4263  -1.2264  -1.2264  -1.2263  -1.2263  -1.0325  -1.0325
    -1.0325  -1.0324  -0.9579  -0.9579  -0.8774  -0.8774  -0.6409  -0.4859
    -0.4551  -0.4551  -0.4550  -0.4550  -0.3710  -0.1607  -0.1607  -0.0114
    -0.0114  -0.0114  -0.0114   0.0330   0.0331   0.0331   0.0331   0.0574
     0.0574   0.1868   0.2188   0.2188   0.4190   0.4190   0.5012   0.5012
     0.5285   0.5285   0.7045   0.7955   0.7955   0.7955   0.7955   0.8235
     0.8499   0.8499   1.5439   1.5439   2.3554   2.3554   3.3349   3.3349
     3.4426   3.4426   3.4426   3.4426   4.6448   4.8122   4.8122   6.1226
     6.1226   6.1226   6.1226   6.1682   6.4221

     occupation numbers 
     1.0000   1.0000   1.0000   1.0000   1.0000   1.0000   1.0000   1.0000
     1.0000   1.0000   1.0000   1.0000   1.0000   1.0000   1.0000   1.0000
     1.0000   1.0000   1.0000   1.0000   1.0000   1.0000   1.0000   1.0000
     1.0000   1.0000   1.0000   1.0000   1.0000   1.0000   1.0000   1.0000
     1.0000   1.0000   1.0000   1.0000   1.0000   1.0000   1.0000   1.0000
     1.0000   1.0000   1.0000   1.0000   1.0000   1.0000   1.0000   1.0000
     1.0000   1.0000   1.0000   1.0000   1.0000   1.0000   1.0000   1.0000
     1.0000   1.0000   1.0000   1.0000   1.0000   1.0000   1.0000   1.0000
     1.0000   1.0000   1.0000   1.0000   1.0000   1.0000   1.0000   1.0000
     1.0000   1.0000   1.0000   1.0000   1.0000   1.0000   1.0000   1.0000
     1.0000   1.0000   1.0000   1.0000   1.0000   1.0000   1.0000   1.0000
     1.0000   1.0000   1.0000   1.0000   1.0000   1.0000   1.0000   1.0000
     1.0000   1.0000   1.0000   1.0000   1.0000   1.0000   1.0000   1.0000
     1.0000   1.0000   1.0000   1.0000   1.0000   1.0000   1.0000   1.0000
     1.0000   1.0000   1.0000   1.0000   1.0000   1.0000   1.0000   1.0000
     1.0000   1.0000   1.0000   1.0000   1.0000   1.0000   1.0000   1.0000
     1.0000   1.0000   1.0000   1.0000   1.0000   1.0000   1.0000   1.0000
     1.0000   1.0000   1.0000   1.0000   0.9523   0.9522   0.1188   0.1186
     0.0167   0.0167   0.0000   0.0000   0.0000   0.0000   0.0000   0.0000
     0.0000   0.0000   0.0000   0.0000   0.0000   0.0000   0.0000   0.0000
     0.0000   0.0000   0.0000   0.0000   0.0000   0.0000   0.0000   0.0000
     0.0000   0.0000   0.0000   0.0000   0.0000

          k = 0.0000 0.3536 0.0000 ( 24144 PWs)   bands (ev):

   -51.6187 -51.6187 -51.6067 -51.6066 -51.6023 -51.5794 -51.5393 -51.5393
   -51.5296 -51.5035 -51.5034 -51.4978 -51.4676 -51.4676 -51.4666 -51.4598
   -51.4468 -51.4149 -51.4149 -51.4007 -51.4007 -51.3998 -51.3936 -51.3936
   -51.3603 -51.3603 -51.3581 -51.3402 -51.3402 -51.3397 -51.3295 -51.3295
   -51.3238 -51.3238 -51.2959 -51.2741 -51.1072 -51.0839 -51.0664 -51.0664
   -51.0637 -51.0637 -51.0559 -51.0558 -51.0557 -51.0445 -51.0444 -51.0372
   -51.0371 -51.0361 -51.0358 -51.0358 -51.0315 -51.0296  -5.6861  -4.8910
    -4.8909  -4.4144  -4.2555  -4.2555  -4.2490  -3.6471  -3.6407  -3.6407
    -3.6158  -3.6158  -3.5175  -3.4937  -3.4937  -3.4400  -3.3787  -3.3305
    -2.9753  -2.9753  -2.9209  -2.9209  -2.8313  -2.8313  -2.8082  -2.8065
    -2.8064  -2.7742  -2.7243  -2.7243  -2.6832  -2.5884  -2.5884  -2.3293
    -2.2905  -2.0848  -2.0848  -1.9546  -1.9546  -1.8720  -1.7870  -1.6806
    -1.6806  -1.5605  -1.5605  -1.5605  -1.5283  -1.5283  -1.4697  -1.4697
    -1.3539  -1.3539  -1.1314  -1.1314  -1.0855  -1.0854  -1.0621  -1.0450
    -1.0276  -0.9621  -0.9621  -0.7450  -0.6889  -0.6242  -0.6241  -0.5879
    -0.5879  -0.5728  -0.5234  -0.4968  -0.4968  -0.3951  -0.3656  -0.3656
    -0.0586  -0.0586  -0.0558  -0.0558  -0.0449   0.2229   0.2389   0.2389
     0.2535   0.2791   0.3094   0.4019   0.4646   0.5002   0.5002   0.5093
     0.5093   0.5121   0.5121   0.5952   0.5952   0.6700   1.0008   1.4937
     1.7232   1.7232   1.8008   1.8008   2.3859   2.7089   2.7089   2.8853
     2.8853   4.4091   4.4091   4.4558   4.7851   5.0030   5.0030   5.0773
     5.0773   5.2584   5.8313   6.0426   6.0427

     occupation numbers 
     1.0000   1.0000   1.0000   1.0000   1.0000   1.0000   1.0000   1.0000
     1.0000   1.0000   1.0000   1.0000   1.0000   1.0000   1.0000   1.0000
     1.0000   1.0000   1.0000   1.0000   1.0000   1.0000   1.0000   1.0000
     1.0000   1.0000   1.0000   1.0000   1.0000   1.0000   1.0000   1.0000
     1.0000   1.0000   1.0000   1.0000   1.0000   1.0000   1.0000   1.0000
     1.0000   1.0000   1.0000   1.0000   1.0000   1.0000   1.0000   1.0000
     1.0000   1.0000   1.0000   1.0000   1.0000   1.0000   1.0000   1.0000
     1.0000   1.0000   1.0000   1.0000   1.0000   1.0000   1.0000   1.0000
     1.0000   1.0000   1.0000   1.0000   1.0000   1.0000   1.0000   1.0000
     1.0000   1.0000   1.0000   1.0000   1.0000   1.0000   1.0000   1.0000
     1.0000   1.0000   1.0000   1.0000   1.0000   1.0000   1.0000   1.0000
     1.0000   1.0000   1.0000   1.0000   1.0000   1.0000   1.0000   1.0000
     1.0000   1.0000   1.0000   1.0000   1.0000   1.0000   1.0000   1.0000
     1.0000   1.0000   1.0000   1.0000   1.0000   1.0000   1.0000   1.0000
     1.0000   1.0000   1.0000   1.0000   1.0000   1.0000   1.0000   1.0000
     1.0000   1.0000   1.0000   1.0000   1.0000   1.0000   1.0000   1.0000
     1.0000   1.0000   1.0000   1.0000   1.0000   1.0000   1.0000   1.0000
     1.0000   1.0000   1.0000   0.9880   0.5353   0.1261   0.1261   0.0718
     0.0717   0.0595   0.0594   0.0000   0.0000   0.0000   0.0000   0.0000
     0.0000   0.0000   0.0000   0.0000   0.0000   0.0000   0.0000   0.0000
     0.0000   0.0000   0.0000   0.0000   0.0000   0.0000   0.0000   0.0000
     0.0000   0.0000   0.0000   0.0000   0.0000

          k = 0.0000-0.7071 0.0000 ( 24148 PWs)   bands (ev):

   -51.6268 -51.6267 -51.6267 -51.6265 -51.6052 -51.6050 -51.4937 -51.4937
   -51.4936 -51.4936 -51.4829 -51.4828 -51.4825 -51.4824 -51.4432 -51.4432
   -51.4431 -51.4431 -51.4143 -51.4143 -51.4143 -51.4143 -51.4042 -51.4041
   -51.3686 -51.3684 -51.3424 -51.3423 -51.3422 -51.3421 -51.3295 -51.3294
   -51.3294 -51.3294 -51.2823 -51.2822 -51.0973 -51.0972 -51.0656 -51.0655
   -51.0655 -51.0655 -51.0503 -51.0502 -51.0501 -51.0500 -51.0443 -51.0441
   -51.0360 -51.0359 -51.0359 -51.0359 -51.0301 -51.0300  -5.1424  -5.1423
    -4.3172  -4.3172  -4.3171  -4.3171  -3.7419  -3.7418  -3.6694  -3.6694
    -3.6693  -3.6693  -3.6379  -3.6378  -3.6378  -3.6377  -3.6003  -3.6003
    -3.4988  -3.4988  -2.9378  -2.9377  -2.9377  -2.9376  -2.6433  -2.6432
    -2.5632  -2.5632  -2.5631  -2.5631  -2.4725  -2.4725  -2.4620  -2.4620
    -2.4620  -2.4620  -2.3087  -2.3086  -1.8126  -1.8126  -1.8126  -1.8126
    -1.6593  -1.6592  -1.6490  -1.6490  -1.6489  -1.6489  -1.3568  -1.3568
    -1.3568  -1.3568  -1.0313  -1.0313  -1.0312  -1.0312  -0.9676  -0.9676
    -0.8732  -0.8731  -0.8584  -0.8583  -0.8522  -0.8522  -0.8521  -0.8521
    -0.5139  -0.5139  -0.5139  -0.5138  -0.3050  -0.3050  -0.3050  -0.3050
    -0.2240  -0.2240  -0.0299  -0.0298   0.0911   0.0911   0.0911   0.0911
     0.3760   0.3760   0.3902   0.3902   0.4136   0.4136   0.5113   0.5113
     0.5114   0.5115   0.5256   0.5256   0.5256   0.5256   1.6165   1.6165
     2.1494   2.1494   2.1494   2.1494   3.1413   3.1414   3.5929   3.5930
     3.5930   3.5930   3.8823   3.8823   3.8823   3.8823   5.1903   5.1903
     5.7475   5.7475   5.7475   5.7475   6.1611

     occupation numbers 
     1.0000   1.0000   1.0000   1.0000   1.0000   1.0000   1.0000   1.0000
     1.0000   1.0000   1.0000   1.0000   1.0000   1.0000   1.0000   1.0000
     1.0000   1.0000   1.0000   1.0000   1.0000   1.0000   1.0000   1.0000
     1.0000   1.0000   1.0000   1.0000   1.0000   1.0000   1.0000   1.0000
     1.0000   1.0000   1.0000   1.0000   1.0000   1.0000   1.0000   1.0000
     1.0000   1.0000   1.0000   1.0000   1.0000   1.0000   1.0000   1.0000
     1.0000   1.0000   1.0000   1.0000   1.0000   1.0000   1.0000   1.0000
     1.0000   1.0000   1.0000   1.0000   1.0000   1.0000   1.0000   1.0000
     1.0000   1.0000   1.0000   1.0000   1.0000   1.0000   1.0000   1.0000
     1.0000   1.0000   1.0000   1.0000   1.0000   1.0000   1.0000   1.0000
     1.0000   1.0000   1.0000   1.0000   1.0000   1.0000   1.0000   1.0000
     1.0000   1.0000   1.0000   1.0000   1.0000   1.0000   1.0000   1.0000
     1.0000   1.0000   1.0000   1.0000   1.0000   1.0000   1.0000   1.0000
     1.0000   1.0000   1.0000   1.0000   1.0000   1.0000   1.0000   1.0000
     1.0000   1.0000   1.0000   1.0000   1.0000   1.0000   1.0000   1.0000
     1.0000   1.0000   1.0000   1.0000   1.0000   1.0000   1.0000   1.0000
     1.0000   1.0000   1.0000   1.0000   1.0000   1.0000   1.0000   1.0000
     0.9992   0.9992   0.9961   0.9961   0.9683   0.9681   0.0630   0.0628
     0.0626   0.0623   0.0213   0.0213   0.0213   0.0213   0.0000   0.0000
     0.0000   0.0000   0.0000   0.0000   0.0000   0.0000   0.0000   0.0000
     0.0000   0.0000   0.0000   0.0000   0.0000   0.0000   0.0000   0.0000
     0.0000   0.0000   0.0000   0.0000   0.0000

          k = 0.2500 0.0000 0.0000 ( 24133 PWs)   bands (ev):

   -51.5853 -51.5852 -51.5840 -51.5839 -51.5758 -51.5757 -51.5727 -51.5727
   -51.5508 -51.5508 -51.5327 -51.5326 -51.5004 -51.4801 -51.4405 -51.4319
   -51.4269 -51.4269 -51.4199 -51.3993 -51.3993 -51.3992 -51.3859 -51.3753
   -51.3628 -51.3628 -51.3545 -51.3425 -51.3330 -51.3330 -51.3257 -51.3179
   -51.3179 -51.3151 -51.3150 -51.2789 -51.1063 -51.0803 -51.0690 -51.0689
   -51.0646 -51.0645 -51.0555 -51.0555 -51.0551 -51.0448 -51.0448 -51.0399
   -51.0362 -51.0362 -51.0337 -51.0322 -51.0318 -51.0317  -5.8209  -5.3901
    -4.8400  -4.5334  -4.4376  -4.4343  -3.8060  -3.8060  -3.5895  -3.5895
    -3.3895  -3.3895  -3.3388  -3.3388  -3.2320  -3.2320  -3.2055  -3.2054
    -3.1937  -3.1937  -3.0971  -3.0971  -3.0472  -3.0472  -2.8529  -2.8529
    -2.7610  -2.7467  -2.7001  -2.7000  -2.5332  -2.5332  -2.4021  -2.1209
    -2.0102  -1.9732  -1.9307  -1.7046  -1.7046  -1.6864  -1.6864  -1.6504
    -1.5905  -1.5905  -1.5904  -1.4865  -1.4770  -1.3843  -1.3843  -1.3687
    -1.3600  -1.3187  -1.3187  -1.2378  -1.2133  -1.2133  -1.1209  -1.0290
    -1.0290  -0.9872  -0.9871  -0.9075  -0.9075  -0.7888  -0.7734  -0.6682
    -0.6681  -0.5264  -0.3384  -0.3384  -0.2625  -0.1908  -0.1907  -0.0549
[...]
     1.0000   1.0000   1.0000   1.0000   1.0000   1.0000   1.0000   1.0000
     1.0000   1.0000   1.0000   1.0000   1.0000   1.0000   1.0000   1.0000
     1.0000   1.0000   1.0000   1.0000   1.0000   1.0000   1.0000   1.0000
     1.0000   1.0000   1.0000   1.0000   1.0000   1.0000   1.0000   1.0000
     1.0000   1.0000   1.0000   1.0000   1.0000   1.0000   1.0000   1.0000
     1.0000   1.0000   1.0000   1.0000   1.0000   1.0000   1.0000   1.0000
     1.0000   1.0000   1.0000   1.0000   1.0000   1.0000   1.0000   1.0000
     1.0000   1.0000   1.0000   1.0000   1.0000   1.0000   1.0000   1.0000
     1.0000   1.0000   1.0000   1.0000   1.0000   1.0000   1.0000   1.0000
     1.0000   1.0000   1.0000   1.0000   1.0000   1.0000   1.0000   1.0000
     1.0000   1.0000   1.0000   1.0000   1.0000   1.0000   1.0000   1.0000
     1.0000   1.0000   1.0000   1.0000   1.0000   1.0000   1.0000   1.0000
     1.0000   1.0000   1.0000   1.0000   1.0000   1.0000   1.0000   1.0000
     1.0000   1.0000   1.0000   1.0000   1.0000   1.0000   0.0000   0.0000
     0.0000   0.0000   0.0000   0.0000   0.0000   0.0000   0.0000   0.0000
     0.0000   0.0000   0.0000   0.0000   0.0000   0.0000   0.0000   0.0000
     0.0000   0.0000   0.0000   0.0000   0.0000   0.0000   0.0000   0.0000
     0.0000   0.0000   0.0000   0.0000   0.0000

     the Fermi energy is     0.3341 ev

!    total energy              =   -3791.30584612 Ry
     estimated scf accuracy    <          7.5E-09 Ry
     smearing contrib. (-TS)   =      -0.00136160 Ry
     internal energy E=F+TS    =   -3791.30448452 Ry

     The total energy is F=E-TS. E is the sum of the following terms:
     one-electron contribution =   -8852.63369278 Ry
     hartree contribution      =    4457.75563974 Ry
     xc contribution           =   -1022.75638833 Ry
     ewald contribution        =    1626.32995685 Ry

     convergence has been achieved in   9 iterations

     negative rho (up, down):  3.107E+00 0.000E+00

     Forces acting on atoms (cartesian axes, Ry/au):

     atom    1 type  1   force =     0.00000000    0.00000000   -0.00003308
     atom    2 type  1   force =     0.00000192    0.00000888    0.00002850
     atom    3 type  1   force =     0.00000000    0.00000756   -0.00002868
     atom    4 type  1   force =     0.00000642    0.00000000    0.00001540
     atom    5 type  1   force =     0.00000000   -0.00000756   -0.00002868
     atom    6 type  1   force =     0.00000192   -0.00000888    0.00002850
     atom    7 type  1   force =    -0.00000674    0.00000000   -0.00002972
     atom    8 type  1   force =     0.00000000    0.00000736    0.00003385
     atom    9 type  1   force =    -0.00000690    0.00000172   -0.00001998
     atom   10 type  1   force =     0.00000000    0.00000000    0.00001729
     atom   11 type  1   force =    -0.00000690   -0.00000172   -0.00001998
     atom   12 type  1   force =     0.00000000   -0.00000736    0.00003385
     atom   13 type  1   force =     0.00000674    0.00000000   -0.00002972
     atom   14 type  1   force =    -0.00000192    0.00000888    0.00002850
     atom   15 type  1   force =     0.00000690    0.00000172   -0.00001998
     atom   16 type  1   force =    -0.00000642    0.00000000    0.00001540
     atom   17 type  1   force =     0.00000690   -0.00000172   -0.00001998
     atom   18 type  1   force =    -0.00000192   -0.00000888    0.00002850
     The non-local contrib.  to forces
     atom    1 type  1   force =     0.00000000    0.00000000   -0.13237234
     atom    2 type  1   force =    -0.00000836    0.00000644    0.13237637
     atom    3 type  1   force =     0.00000000    0.00001237   -0.13239164
     atom    4 type  1   force =    -0.00000518    0.00000000    0.13237464
     atom    5 type  1   force =     0.00000000   -0.00001237   -0.13239164
     atom    6 type  1   force =    -0.00000836   -0.00000644    0.13237637
     atom    7 type  1   force =     0.00000188    0.00000000   -0.13236969
     atom    8 type  1   force =     0.00000000    0.00000039    0.13238658
     atom    9 type  1   force =     0.00000366   -0.00000330   -0.13237645
     atom   10 type  1   force =     0.00000000    0.00000000    0.13237989
     atom   11 type  1   force =     0.00000366    0.00000330   -0.13237645
     atom   12 type  1   force =     0.00000000   -0.00000039    0.13238658
     atom   13 type  1   force =    -0.00000188    0.00000000   -0.13236969
     atom   14 type  1   force =     0.00000836    0.00000644    0.13237637
     atom   15 type  1   force =    -0.00000366   -0.00000330   -0.13237645
     atom   16 type  1   force =     0.00000518    0.00000000    0.13237464
     atom   17 type  1   force =    -0.00000366    0.00000330   -0.13237645
     atom   18 type  1   force =     0.00000836   -0.00000644    0.13237637
     The ionic contribution  to forces
     atom    1 type  1   force =    -0.00000000    0.00006466  -30.05537080
     atom    2 type  1   force =     0.00033377    0.00125976   30.05275482
     atom    3 type  1   force =     0.00000000    0.00193133  -30.05882813
     atom    4 type  1   force =    -0.00037909   -0.00001337   30.05179461
     atom    5 type  1   force =     0.00000000   -0.00198089  -30.05882814
     atom    6 type  1   force =     0.00033377   -0.00126149   30.05277888
     atom    7 type  1   force =     0.00056990    0.00006466  -30.05025706
     atom    8 type  1   force =     0.00000000    0.00023907   30.05660645
     atom    9 type  1   force =    -0.00001712    0.00014740  -30.05304986
     atom   10 type  1   force =    -0.00000000   -0.00001337   30.05784708
     atom   11 type  1   force =    -0.00001712   -0.00019696  -30.05304987
     atom   12 type  1   force =     0.00000000   -0.00024081   30.05663051
     atom   13 type  1   force =    -0.00056990    0.00006466  -30.05025706
     atom   14 type  1   force =    -0.00033377    0.00125976   30.05275482
     atom   15 type  1   force =     0.00001712    0.00014740  -30.05304986
     atom   16 type  1   force =     0.00037909   -0.00001337   30.05179461
     atom   17 type  1   force =     0.00001712   -0.00019696  -30.05304987
     atom   18 type  1   force =    -0.00033377   -0.00126149   30.05277888
     The local contribution  to forces
     atom    1 type  1   force =    -0.00000000   -0.00000000   30.18336943
     atom    2 type  1   force =    -0.00028206   -0.00154365  -30.18088182
     atom    3 type  1   force =    -0.00000000   -0.00220262   30.18692291
     atom    4 type  1   force =     0.00040926   -0.00027654  -30.17985398
     atom    5 type  1   force =    -0.00000000    0.00164955   30.18692292
     atom    6 type  1   force =    -0.00028206    0.00099058  -30.18088182
     atom    7 type  1   force =    -0.00060295   -0.00000000   30.17822096
     atom    8 type  1   force =     0.00000000   -0.00053266  -30.18477527
     atom    9 type  1   force =    -0.00002541   -0.00043358   30.18110448
     atom   10 type  1   force =     0.00000000   -0.00027654  -30.18594002
     atom   11 type  1   force =    -0.00002541   -0.00011949   30.18110448
     atom   12 type  1   force =     0.00000000   -0.00002041  -30.18477527
     atom   13 type  1   force =     0.00060295   -0.00000000   30.17822096
     atom   14 type  1   force =     0.00028206   -0.00154365  -30.18088182
     atom   15 type  1   force =     0.00002541   -0.00043358   30.18110448
     atom   16 type  1   force =    -0.00040926   -0.00027654  -30.17985398
     atom   17 type  1   force =     0.00002541   -0.00011949   30.18110448
     atom   18 type  1   force =     0.00028206    0.00099058  -30.18088182
     The core correction contribution to forces
     atom    1 type  1   force =     0.00000000    0.00000000    0.00429202
     atom    2 type  1   force =    -0.00000175    0.00000998   -0.00429191
     atom    3 type  1   force =    -0.00000000    0.00000917    0.00429112
     atom    4 type  1   force =    -0.00000083    0.00001017   -0.00429239
     atom    5 type  1   force =    -0.00000000    0.00001116    0.00429112
     atom    6 type  1   force =    -0.00000175    0.00001035   -0.00429191
     atom    7 type  1   force =    -0.00000077   -0.00000000    0.00429092
     atom    8 type  1   force =    -0.00000000    0.00001019   -0.00429159
     atom    9 type  1   force =     0.00000005    0.00000969    0.00429171
     atom   10 type  1   force =    -0.00000000    0.00001017   -0.00429579
     atom   11 type  1   force =     0.00000005    0.00001064    0.00429171
     atom   12 type  1   force =    -0.00000000    0.00001014   -0.00429159
     atom   13 type  1   force =     0.00000077   -0.00000000    0.00429092
     atom   14 type  1   force =     0.00000175    0.00000998   -0.00429191
     atom   15 type  1   force =    -0.00000005    0.00000969    0.00429171
     atom   16 type  1   force =     0.00000083    0.00001017   -0.00429239
     atom   17 type  1   force =    -0.00000005    0.00001064    0.00429171
     atom   18 type  1   force =     0.00000175    0.00001035   -0.00429191
     The Hubbard contrib.    to forces
     atom    1 type  1   force =     0.00000000    0.00000000    0.00000000
     atom    2 type  1   force =     0.00000000    0.00000000    0.00000000
     atom    3 type  1   force =     0.00000000    0.00000000    0.00000000
     atom    4 type  1   force =     0.00000000    0.00000000    0.00000000
     atom    5 type  1   force =     0.00000000    0.00000000    0.00000000
     atom    6 type  1   force =     0.00000000    0.00000000    0.00000000
     atom    7 type  1   force =     0.00000000    0.00000000    0.00000000
     atom    8 type  1   force =     0.00000000    0.00000000    0.00000000
     atom    9 type  1   force =     0.00000000    0.00000000    0.00000000
     atom   10 type  1   force =     0.00000000    0.00000000    0.00000000
     atom   11 type  1   force =     0.00000000    0.00000000    0.00000000
     atom   12 type  1   force =     0.00000000    0.00000000    0.00000000
     atom   13 type  1   force =     0.00000000    0.00000000    0.00000000
     atom   14 type  1   force =     0.00000000    0.00000000    0.00000000
     atom   15 type  1   force =     0.00000000    0.00000000    0.00000000
     atom   16 type  1   force =     0.00000000    0.00000000    0.00000000
     atom   17 type  1   force =     0.00000000    0.00000000    0.00000000
     atom   18 type  1   force =     0.00000000    0.00000000    0.00000000
     The SCF correction term to forces
     atom    1 type  1   force =     0.00000000    0.00000000    0.00004928
     atom    2 type  1   force =    -0.00003967    0.00000911    0.00005968
     atom    3 type  1   force =    -0.00000000   -0.00003384   -0.00002228
     atom    4 type  1   force =    -0.00001774    0.00000000   -0.00000681
     atom    5 type  1   force =    -0.00000000    0.00003384   -0.00002228
     atom    6 type  1   force =    -0.00003967   -0.00000911    0.00005968
     atom    7 type  1   force =     0.00002521    0.00000000    0.00008580
     atom    8 type  1   force =     0.00000000    0.00002314    0.00009631
     atom    9 type  1   force =     0.00003193   -0.00000965    0.00001081
     atom   10 type  1   force =    -0.00000000    0.00000000    0.00002680
     atom   11 type  1   force =     0.00003193    0.00000965    0.00001081
     atom   12 type  1   force =    -0.00000000   -0.00002314    0.00009631
     atom   13 type  1   force =    -0.00002521    0.00000000    0.00008580
     atom   14 type  1   force =     0.00003967    0.00000911    0.00005968
     atom   15 type  1   force =    -0.00003193   -0.00000965    0.00001081
     atom   16 type  1   force =     0.00001774    0.00000000   -0.00000681
     atom   17 type  1   force =    -0.00003193    0.00000965    0.00001081
     atom   18 type  1   force =     0.00003967   -0.00000911    0.00005968

     Total force =     0.000116     Total SCF correction =     0.000262
     SCF correction compared to forces is large: reduce conv_thr to get better values


     Computing stress (Cartesian axis) and pressure


     negative rho (up, down):  3.107E+00 0.000E+00
          total   stress  (Ry/bohr**3)                   (kbar)     P=       -2.72
   0.00021055   0.00000000   0.00000000           30.97        0.00        0.00
   0.00000000  -0.00019077   0.00000000            0.00      -28.06        0.00
   0.00000000   0.00000000  -0.00007525            0.00        0.00      -11.07

     kinetic stress (kbar)  11325.74      0.00      0.00
                                0.00  11396.79      0.00
                                0.00      0.00  11895.90

     local   stress (kbar)-137742.03      0.00     -0.00
                                0.00-138293.13      0.00
                               -0.00      0.00 148269.13

     nonloc. stress (kbar)    -50.65      0.00      0.00
                                0.00    -76.62      0.00
                                0.00      0.00     72.81

     hartree stress (kbar)  70039.13     -0.00      0.00
                               -0.00  70359.44      0.00
                                0.00      0.00 -65038.36

     exc-cor stress (kbar)   8508.97     -0.00     -0.00
                               -0.00   8509.11     -0.00
                               -0.00     -0.00   8496.47

     corecor stress (kbar) -11717.73     -0.00     -0.00
                               -0.00 -11723.08     -0.00
                               -0.00     -0.00 -11733.82

     ewald   stress (kbar)  59667.55     -0.00      0.00
                               -0.00  59799.43     -0.00
                                0.00     -0.00 -91973.20

     hubbard stress (kbar)      0.00      0.00      0.00
                                0.00      0.00      0.00
                                0.00      0.00      0.00

     DFT-D   stress (kbar)      0.00      0.00      0.00
                                0.00      0.00      0.00
                                0.00      0.00      0.00

     XDM     stress (kbar)      0.00      0.00      0.00
                                0.00      0.00      0.00
                                0.00      0.00      0.00

     dft-nl  stress (kbar)      0.00      0.00      0.00
                                0.00      0.00      0.00
                                0.00      0.00      0.00

     TS-vdW  stress (kbar)      0.00      0.00      0.00
                                0.00      0.00      0.00
                                0.00      0.00      0.00


     Energy error            =      6.0E-06
     Gradient error          =      3.4E-05

     bfgs converged in   9 scf cycles and   8 bfgs steps
     (criteria: energy <  1.0E-04 Ry, force <  1.0E-03 Ry/Bohr)

     End of BFGS Geometry Optimization

     Final energy   =   -3791.3058461214 Ry

     File ./surface.bfgs deleted, as requested
Begin final coordinates

ATOMIC_POSITIONS (angstrom)
Pt            0.0000000000        0.0000000000        0.3525600472
Pt            1.9883802625        1.4059819502        1.0533617930
Pt            0.0000000000        2.8119418705        0.3525049239
Pt            1.9883273439        4.2180015000        1.0533458000
Pt            0.0000000000        5.6240611295        0.3525049239
Pt            1.9883802625        7.0300210498        1.0533617930
Pt            3.9768057240        0.0000000000        0.3526804424
Pt            5.9651550000        1.4060202297        1.0534654658
Pt            3.9767749664        2.8120121379        0.3526315059
Pt            5.9651550000        4.2180015000        1.0534779927
Pt            3.9767749664        5.6239908621        0.3526315059
Pt            5.9651550000        7.0299827703        1.0534654658
Pt            7.9535042760        0.0000000000        0.3526804424
Pt            9.9419297375        1.4059819502        1.0533617930
Pt            7.9535350336        2.8120121379        0.3526315059
Pt            9.9419826561        4.2180015000        1.0533458000
Pt            7.9535350336        5.6239908621        0.3526315059
Pt            9.9419297375        7.0300210498        1.0533617930
End final coordinates



     Writing output data file ./surface.save/

     init_run     :      2.57s CPU      2.70s WALL (       1 calls)
     electrons    :    618.35s CPU    635.14s WALL (       9 calls)
     update_pot   :      3.78s CPU      3.81s WALL (       8 calls)
     forces       :     13.02s CPU     13.43s WALL (       9 calls)
     stress       :     47.79s CPU     48.50s WALL (       9 calls)

     Called by init_run:
     wfcinit      :      1.74s CPU      1.78s WALL (       1 calls)
     wfcinit:atom :      0.02s CPU      0.02s WALL (       9 calls)
     wfcinit:wfcr :      1.60s CPU      1.64s WALL (       9 calls)
     potinit      :      0.19s CPU      0.20s WALL (       1 calls)
     hinit0       :      0.29s CPU      0.30s WALL (       1 calls)

     Called by electrons:
     c_bands      :    521.39s CPU    526.91s WALL (     116 calls)
     sum_band     :     76.28s CPU     82.50s WALL (     116 calls)
     v_of_rho     :      6.44s CPU      6.59s WALL (     124 calls)
     v_h          :      0.51s CPU      0.51s WALL (     124 calls)
     v_xc         :      6.79s CPU      6.95s WALL (     142 calls)
     newd         :     13.98s CPU     18.15s WALL (     124 calls)
     mix_rho      :      0.78s CPU      0.79s WALL (     116 calls)

     Called by c_bands:
     init_us_2    :      5.26s CPU      5.33s WALL (    2259 calls)
     cegterg      :    506.31s CPU    511.49s WALL (    1044 calls)

     Called by sum_band:
     sum_band:wei :      0.09s CPU      0.09s WALL (     116 calls)
     sum_band:loo :     58.40s CPU     59.23s WALL (     116 calls)
     sum_band:buf :      2.04s CPU      2.10s WALL (    1044 calls)
     sum_band:ini :      2.62s CPU      2.65s WALL (    1044 calls)
     sum_band:cal :     17.46s CPU     17.57s WALL (    1044 calls)
     sum_band:bec :      0.49s CPU      0.49s WALL (    1044 calls)
     addusdens    :     14.16s CPU     19.50s WALL (     116 calls)
     addusd:skk   :      0.51s CPU      0.52s WALL (     116 calls)
     addusd:dgemm :      6.48s CPU     11.74s WALL (     116 calls)
     addusd:qvan2 :      5.76s CPU      5.79s WALL (     116 calls)

     Called by *egterg:
     cdiaghg      :     66.30s CPU     66.72s WALL (    3441 calls)
     cegterg:over :     47.60s CPU     47.93s WALL (    2478 calls)
     cegterg:upda :     32.10s CPU     32.31s WALL (    2478 calls)
     cegterg:last :     66.29s CPU     66.72s WALL (    1934 calls)
     cdiaghg:chol :      2.92s CPU      2.96s WALL (    3441 calls)
     cdiaghg:inve :      3.37s CPU      3.40s WALL (    3441 calls)
     cdiaghg:para :      8.24s CPU      8.30s WALL (    6882 calls)
     h_psi        :    243.60s CPU    247.07s WALL (    3531 calls)
     s_psi        :     29.98s CPU     30.17s WALL (    3531 calls)
     g_psi        :      0.89s CPU      0.90s WALL (    2478 calls)

     Called by h_psi:
     h_psi:calbec :     45.59s CPU     45.91s WALL (    3531 calls)
     vloc_psi     :    167.05s CPU    169.99s WALL (    3531 calls)
     add_vuspsi   :     28.46s CPU     28.65s WALL (    3531 calls)

     General routines
     calbec       :     74.77s CPU     75.27s WALL (    4980 calls)
     fft          :      4.82s CPU      4.88s WALL (    1828 calls)
     ffts         :      0.15s CPU      0.15s WALL (     240 calls)
     fftw         :    185.97s CPU    189.24s WALL ( 1062808 calls)
     interpolate  :      0.43s CPU      0.43s WALL (     124 calls)

     Parallel routines
     fft_scatt_xy :     16.47s CPU     16.73s WALL ( 1064876 calls)
     fft_scatt_yz :     82.54s CPU     84.09s WALL ( 1064876 calls)

     PWSCF        :  11m27.38s CPU  11m47.66s WALL


   This run was terminated on:  19:22:26   6Dec2021            

=------------------------------------------------------------------------------=
   JOB DONE.
=------------------------------------------------------------------------------=
