
     Program PWSCF v.6.7MaX starts on  9Dec2021 at 17:50:35 

     This program is part of the open-source Quantum ESPRESSO suite
     for quantum simulation of materials; please cite
         "P. Giannozzi et al., J. Phys.:Condens. Matter 21 395502 (2009);
         "P. Giannozzi et al., J. Phys.:Condens. Matter 29 465901 (2017);
          URL http://www.quantum-espresso.org", 
     in publications or presentations arising from this work. More details at
     http://www.quantum-espresso.org/quote

     Parallel version (MPI), running on    32 processors

     MPI processes distributed on     1 nodes
     R & G space division:  proc/nbgrp/npool/nimage =      32
     Reading input from ag_surface.110.qe.in

     Current dimensions of program PWSCF are:
     Max number of different atomic species (ntypx) = 10
     Max number of k-points (npk) =  40000
     Max angular momentum in pseudopotentials (lmaxx) =  3

     Subspace diagonalization in iterative solution of the eigenvalue problem:
     one sub-group per band group will be used
     scalapack distributed-memory algorithm (size of sub-group:  5*  5 procs)

     Found symmetry operation: I + (  0.0000  0.3333  0.0000)
     This is a supercell, fractional translations are disabled

     Parallelization info
     --------------------
     sticks:   dense  smooth     PW     G-vecs:    dense   smooth      PW
     Min         293     117     32                26383     6669     943
     Max         294     118     34                26389     6672     946
     Sum        9385    3773   1037               844339   213469   30209



     bravais-lattice index     =            8
     lattice parameter (alat)  =      23.5869  a.u.
     unit-cell volume          =    9621.1061 (a.u.)^3
     number of atoms/cell      =           18
     number of atomic types    =            1
     number of electrons       =       342.00
     number of Kohn-Sham states=          205
     kinetic-energy cutoff     =      30.0000  Ry
     charge density cutoff     =     300.0000  Ry
     scf convergence threshold =      1.0E-06
     mixing beta               =       0.3000
     number of iterations used =            8  plain     mixing
     energy convergence thresh.=      1.0E-04
     force convergence thresh. =      1.0E-03
     Exchange-correlation=  SLA  PW   PBX  PBC
                           (   1   4   3   4   0   0   0)
     nstep                     =           50


     celldm(1)=  23.586881  celldm(2)=   0.707107  celldm(3)=   1.036879
     celldm(4)=   0.000000  celldm(5)=   0.000000  celldm(6)=   0.000000

     crystal axes: (cart. coord. in units of alat)
               a(1) = (   1.000000   0.000000   0.000000 )  
               a(2) = (   0.000000   0.707107   0.000000 )  
               a(3) = (   0.000000   0.000000   1.036879 )  

     reciprocal axes: (cart. coord. in units 2 pi/alat)
               b(1) = (  1.000000  0.000000  0.000000 )  
               b(2) = (  0.000000  1.414212  0.000000 )  
               b(3) = (  0.000000  0.000000  0.964433 )  


     PseudoPot. # 1 for Ag read from file:
     /expanse/lustre/projects/csd622/tpascal/nano110/qe/pseudo/ag_pbe_v1.4.uspp.F.UPF
     MD5 check sum: d66d668201baa78d5eb5b04ef7011058
     Pseudo is Ultrasoft + core correction, Zval = 19.0
     Generated by new atomic code, or converted to UPF format
     Using radial grid of  887 points,  6 beta functions with: 
                l(1) =   0
                l(2) =   0
                l(3) =   1
                l(4) =   1
                l(5) =   2
                l(6) =   2
     Q(r) pseudized with  6 coefficients,  rinner =    1.300   1.300   1.300
                                                       1.300   1.300

     atomic species   valence    mass     pseudopotential
        Ag            19.00   107.86820     Ag( 1.00)

      4 Sym. Ops. (no inversion) found


                                    s                        frac. trans.

      isym =  1     identity                                     

 cryst.   s( 1) = (     1          0          0      )
                  (     0          1          0      )
                  (     0          0          1      )

 cart.    s( 1) = (  1.0000000  0.0000000  0.0000000 )
                  (  0.0000000  1.0000000  0.0000000 )
                  (  0.0000000  0.0000000  1.0000000 )


      isym =  2     180 deg rotation - cart. axis [0,0,1]        

 cryst.   s( 2) = (    -1          0          0      )
                  (     0         -1          0      )
                  (     0          0          1      )

 cart.    s( 2) = ( -1.0000000  0.0000000  0.0000000 )
                  (  0.0000000 -1.0000000  0.0000000 )
                  (  0.0000000  0.0000000  1.0000000 )


      isym =  3     inv. 180 deg rotation - cart. axis [0,1,0]   

 cryst.   s( 3) = (     1          0          0      )
                  (     0         -1          0      )
                  (     0          0          1      )

 cart.    s( 3) = (  1.0000000  0.0000000  0.0000000 )
                  (  0.0000000 -1.0000000  0.0000000 )
                  (  0.0000000  0.0000000  1.0000000 )


      isym =  4     inv. 180 deg rotation - cart. axis [1,0,0]   

 cryst.   s( 4) = (    -1          0          0      )
                  (     0          1          0      )
                  (     0          0          1      )

 cart.    s( 4) = ( -1.0000000  0.0000000  0.0000000 )
                  (  0.0000000  1.0000000  0.0000000 )
                  (  0.0000000  0.0000000  1.0000000 )


     point group C_2v (mm2) 
     there are  4 classes
     the character table:

       E     C2    s_v   s_v' 
A_1    1.00  1.00  1.00  1.00
A_2    1.00  1.00 -1.00 -1.00
B_1    1.00 -1.00  1.00 -1.00
B_2    1.00 -1.00 -1.00  1.00

     the symmetry operations in each class and the name of the first element:

     E        1
          identity                                               
     C2       2
          180 deg rotation - cart. axis [0,0,1]                  
     s_v      4
          inv. 180 deg rotation - cart. axis [1,0,0]             
     s_v'     3
          inv. 180 deg rotation - cart. axis [0,1,0]             

   Cartesian axes

     site n.     atom                  positions (alat units)
         1           Ag  tau(   1) = (   0.0000000   0.0000000   0.0000000  )
         2           Ag  tau(   2) = (   0.1666667   0.1178512   0.1178512  )
         3           Ag  tau(   3) = (   0.0000000   0.2357024   0.0000000  )
         4           Ag  tau(   4) = (   0.1666667   0.3535535   0.1178512  )
         5           Ag  tau(   5) = (   0.0000000   0.4714047   0.0000000  )
         6           Ag  tau(   6) = (   0.1666667   0.5892559   0.1178512  )
         7           Ag  tau(   7) = (   0.3333334   0.0000000   0.0000000  )
         8           Ag  tau(   8) = (   0.5000002   0.1178512   0.1178512  )
         9           Ag  tau(   9) = (   0.3333334   0.2357024   0.0000000  )
        10           Ag  tau(  10) = (   0.5000002   0.3535535   0.1178512  )
        11           Ag  tau(  11) = (   0.3333334   0.4714047   0.0000000  )
        12           Ag  tau(  12) = (   0.5000002   0.5892559   0.1178512  )
        13           Ag  tau(  13) = (   0.6666669   0.0000000   0.0000000  )
        14           Ag  tau(  14) = (   0.8333336   0.1178512   0.1178512  )
        15           Ag  tau(  15) = (   0.6666669   0.2357024   0.0000000  )
        16           Ag  tau(  16) = (   0.8333336   0.3535535   0.1178512  )
        17           Ag  tau(  17) = (   0.6666669   0.4714047   0.0000000  )
        18           Ag  tau(  18) = (   0.8333336   0.5892559   0.1178512  )

   Crystallographic axes

     site n.     atom                  positions (cryst. coord.)
         1           Ag  tau(   1) = (  0.0000000  0.0000000  0.0000000  )
         2           Ag  tau(   2) = (  0.1666667  0.1666666  0.1136595  )
         3           Ag  tau(   3) = (  0.0000000  0.3333332  0.0000000  )
         4           Ag  tau(   4) = (  0.1666667  0.4999998  0.1136595  )
         5           Ag  tau(   5) = (  0.0000000  0.6666664  0.0000000  )
         6           Ag  tau(   6) = (  0.1666667  0.8333330  0.1136595  )
         7           Ag  tau(   7) = (  0.3333334  0.0000000  0.0000000  )
         8           Ag  tau(   8) = (  0.5000002  0.1666666  0.1136595  )
         9           Ag  tau(   9) = (  0.3333334  0.3333332  0.0000000  )
        10           Ag  tau(  10) = (  0.5000002  0.4999998  0.1136595  )
        11           Ag  tau(  11) = (  0.3333334  0.6666664  0.0000000  )
        12           Ag  tau(  12) = (  0.5000002  0.8333330  0.1136595  )
        13           Ag  tau(  13) = (  0.6666669  0.0000000  0.0000000  )
        14           Ag  tau(  14) = (  0.8333336  0.1666666  0.1136595  )
        15           Ag  tau(  15) = (  0.6666669  0.3333332  0.0000000  )
        16           Ag  tau(  16) = (  0.8333336  0.4999998  0.1136595  )
        17           Ag  tau(  17) = (  0.6666669  0.6666664  0.0000000  )
        18           Ag  tau(  18) = (  0.8333336  0.8333330  0.1136595  )

     number of k points=     9  Gaussian smearing, width (Ry)=  0.0030
                       cart. coord. in units 2pi/alat
        k(    1) = (   0.0000000   0.0000000   0.0000000), wk =   0.1250000
        k(    2) = (   0.0000000   0.3535531   0.0000000), wk =   0.2500000
        k(    3) = (   0.0000000  -0.7071062   0.0000000), wk =   0.1250000
        k(    4) = (   0.2500000   0.0000000   0.0000000), wk =   0.2500000
        k(    5) = (   0.2500000   0.3535531   0.0000000), wk =   0.5000000
        k(    6) = (   0.2500000  -0.7071062   0.0000000), wk =   0.2500000
        k(    7) = (  -0.5000000   0.0000000   0.0000000), wk =   0.1250000
        k(    8) = (  -0.5000000   0.3535531   0.0000000), wk =   0.2500000
        k(    9) = (  -0.5000000  -0.7071062   0.0000000), wk =   0.1250000

                       cryst. coord.
        k(    1) = (   0.0000000   0.0000000   0.0000000), wk =   0.1250000
        k(    2) = (   0.0000000   0.2500000   0.0000000), wk =   0.2500000
        k(    3) = (   0.0000000  -0.5000000   0.0000000), wk =   0.1250000
        k(    4) = (   0.2500000   0.0000000   0.0000000), wk =   0.2500000
        k(    5) = (   0.2500000   0.2500000   0.0000000), wk =   0.5000000
        k(    6) = (   0.2500000  -0.5000000   0.0000000), wk =   0.2500000
        k(    7) = (  -0.5000000   0.0000000   0.0000000), wk =   0.1250000
        k(    8) = (  -0.5000000   0.2500000   0.0000000), wk =   0.2500000
        k(    9) = (  -0.5000000  -0.5000000   0.0000000), wk =   0.1250000

     Dense  grid:   844339 G-vectors     FFT dimensions: ( 135,  96, 135)

     Smooth grid:   213469 G-vectors     FFT dimensions: (  90,  60,  90)

     Dynamical RAM for                 wfc:       2.61 MB

     Dynamical RAM for     wfc (w. buffer):      26.09 MB

     Dynamical RAM for           str. fact:       0.40 MB

     Dynamical RAM for           local pot:       0.00 MB

     Dynamical RAM for          nlocal pot:       4.12 MB

     Dynamical RAM for                qrad:       1.39 MB

     Dynamical RAM for          rho,v,vnew:       2.69 MB

     Dynamical RAM for               rhoin:       0.90 MB

     Dynamical RAM for            rho*nmix:       6.44 MB

     Dynamical RAM for           G-vectors:       1.56 MB

     Dynamical RAM for          h,s,v(r/c):       0.31 MB

     Dynamical RAM for          <psi|beta>:       1.01 MB

     Dynamical RAM for                 psi:       5.22 MB

     Dynamical RAM for                hpsi:       5.22 MB

     Dynamical RAM for                spsi:       5.22 MB

     Dynamical RAM for      wfcinit/wfcrot:       7.21 MB

     Dynamical RAM for           addusdens:      82.14 MB

     Dynamical RAM for          addusforce:      96.10 MB

     Dynamical RAM for         addusstress:      80.93 MB

     Estimated static dynamical RAM per process >      46.87 MB

     Estimated max dynamical RAM per process >     142.97 MB

     Estimated total dynamical RAM >       4.47 GB

     Initial potential from superposition of free atoms

     starting charge  332.99915, renormalised to  342.00000

     negative rho (up, down):  7.036E-03 0.000E+00
     Starting wfcs are  234 randomized atomic wfcs

     total cpu time spent up to now is        3.2 secs

     Self-consistent Calculation

     iteration #  1     ecut=    30.00 Ry     beta= 0.30
     Davidson diagonalization with overlap
     ethr =  1.00E-02,  avg # of iterations =  7.0

     negative rho (up, down):  1.426E-03 0.000E+00

     total cpu time spent up to now is       13.1 secs

     total energy              =   -5312.66352770 Ry
     estimated scf accuracy    <      31.75207176 Ry

     iteration #  2     ecut=    30.00 Ry     beta= 0.30
     Davidson diagonalization with overlap
     ethr =  9.28E-03,  avg # of iterations =  2.1

     negative rho (up, down):  2.050E-03 0.000E+00

     total cpu time spent up to now is       20.4 secs

     total energy              =   -5320.09920792 Ry
     estimated scf accuracy    <       1.08184013 Ry

     iteration #  3     ecut=    30.00 Ry     beta= 0.30
     Davidson diagonalization with overlap
     ethr =  3.16E-04,  avg # of iterations =  4.1

     negative rho (up, down):  3.089E-03 0.000E+00

     total cpu time spent up to now is       27.3 secs

     total energy              =   -5320.13892570 Ry
     estimated scf accuracy    <       0.12968442 Ry

     iteration #  4     ecut=    30.00 Ry     beta= 0.30
     Davidson diagonalization with overlap
     ethr =  3.79E-05,  avg # of iterations =  6.0

     negative rho (up, down):  6.799E-03 0.000E+00

     total cpu time spent up to now is       36.5 secs

     total energy              =   -5320.16124735 Ry
     estimated scf accuracy    <       0.01179515 Ry

     iteration #  5     ecut=    30.00 Ry     beta= 0.30
     Davidson diagonalization with overlap
     ethr =  3.45E-06,  avg # of iterations =  9.6

     negative rho (up, down):  5.513E-03 0.000E+00

     total cpu time spent up to now is       47.3 secs

     total energy              =   -5320.16210326 Ry
     estimated scf accuracy    <       0.00886032 Ry

     iteration #  6     ecut=    30.00 Ry     beta= 0.30
     Davidson diagonalization with overlap
     ethr =  2.59E-06,  avg # of iterations =  2.0

     negative rho (up, down):  5.565E-03 0.000E+00

     total cpu time spent up to now is       54.5 secs

     total energy              =   -5320.16293677 Ry
     estimated scf accuracy    <       0.00032148 Ry

     iteration #  7     ecut=    30.00 Ry     beta= 0.30
     Davidson diagonalization with overlap
     ethr =  9.40E-08,  avg # of iterations =  2.0

     negative rho (up, down):  5.635E-03 0.000E+00

     total cpu time spent up to now is       61.8 secs

     total energy              =   -5320.16301985 Ry
     estimated scf accuracy    <       0.00003582 Ry

     iteration #  8     ecut=    30.00 Ry     beta= 0.30
     Davidson diagonalization with overlap
     ethr =  1.05E-08,  avg # of iterations =  1.6

     negative rho (up, down):  5.725E-03 0.000E+00

     total cpu time spent up to now is       67.6 secs

     total energy              =   -5320.16301982 Ry
     estimated scf accuracy    <       0.00001386 Ry

     iteration #  9     ecut=    30.00 Ry     beta= 0.30
     Davidson diagonalization with overlap
     ethr =  4.05E-09,  avg # of iterations =  2.0

     negative rho (up, down):  5.751E-03 0.000E+00

     total cpu time spent up to now is       74.9 secs

     total energy              =   -5320.16302378 Ry
     estimated scf accuracy    <       0.00000436 Ry

     iteration # 10     ecut=    30.00 Ry     beta= 0.30
     Davidson diagonalization with overlap
     ethr =  1.28E-09,  avg # of iterations =  2.0

     negative rho (up, down):  5.783E-03 0.000E+00

     total cpu time spent up to now is       81.8 secs

     End of self-consistent calculation

          k = 0.0000 0.0000 0.0000 ( 26735 PWs)   bands (ev):

   -90.8422 -90.8400 -90.8400 -90.8367 -90.8367 -90.8356 -90.8356 -90.8356
   -90.8356 -90.8356 -90.8356 -90.8335 -90.8334 -90.8334 -90.8334 -90.8334
   -90.8323 -90.8323 -54.3557 -54.3557 -54.3557 -54.3557 -54.3556 -54.3556
   -54.3511 -54.3511 -54.3510 -54.3510 -54.3452 -54.3452 -54.3286 -54.3279
   -54.3279 -54.3208 -54.3208 -54.3142 -54.3088 -54.3088 -54.3074 -54.3072
   -54.3072 -54.3072 -54.3072 -54.3013 -54.3013 -54.3013 -54.3013 -54.3005
   -54.3004 -54.2980 -54.2980 -54.2892 -54.2892 -54.2891 -54.2878 -54.2878
   -54.2826 -54.2808 -54.2808 -54.2808 -54.2808 -54.2800 -54.2800 -54.2777
   -54.2777 -54.2768 -54.2768 -54.2768 -54.2768 -54.2696 -54.2696 -54.2673
    -4.5410  -4.4788  -4.4788  -4.4726  -4.3506  -4.3506  -4.0227  -4.0227
    -3.9593  -3.9593  -3.9452  -3.9452  -3.9337  -3.9337  -3.9337  -3.9337
    -3.8931  -3.8930  -3.8524  -3.8523  -3.8523  -3.8523  -3.7903  -3.7514
    -3.7514  -3.7514  -3.7514  -3.7035  -3.7035  -3.7015  -3.7015  -3.7015
    -3.7015  -3.6389  -3.3363  -3.3068  -3.3068  -3.3068  -3.3068  -3.2729
    -3.2729  -3.1941  -3.1941  -3.1830  -3.1830  -3.1167  -3.1167  -3.0957
    -2.9707  -2.9707  -2.9173  -2.9173  -2.8927  -2.8927  -2.8927  -2.8927
    -2.8916  -2.8916  -2.8916  -2.8916  -2.8209  -2.7616  -2.7616  -2.7615
    -2.7615  -2.7452  -2.7141  -2.7140  -2.6982  -2.6982  -2.5729  -2.5496
    -2.5496  -2.5496  -2.5496  -2.4798  -2.4696  -2.4696  -2.4677  -2.4677
    -2.4677  -2.4677  -2.4406  -2.4406  -2.3626  -2.3626  -2.3300  -2.3300
    -2.2379  -2.2378  -2.1863  -2.1863  -2.1720  -1.4912  -1.4912  -0.2918
    -0.2918  -0.2918  -0.2917   0.2920   0.7155   0.7156   1.6539   1.6540
     2.4119   2.4119   2.5519   2.5519   2.5519   2.5520   3.2097   3.6639
     3.6639   4.3247   4.3247   4.3247   4.3248   4.9197   5.0074   5.0074
     5.0676   5.1827   5.1828   5.2511   5.6093   5.6094   5.9840   5.9840
     5.9840   5.9840   6.2031   6.2031   6.4983

     occupation numbers 
     1.0000   1.0000   1.0000   1.0000   1.0000   1.0000   1.0000   1.0000
     1.0000   1.0000   1.0000   1.0000   1.0000   1.0000   1.0000   1.0000
     1.0000   1.0000   1.0000   1.0000   1.0000   1.0000   1.0000   1.0000
     1.0000   1.0000   1.0000   1.0000   1.0000   1.0000   1.0000   1.0000
     1.0000   1.0000   1.0000   1.0000   1.0000   1.0000   1.0000   1.0000
     1.0000   1.0000   1.0000   1.0000   1.0000   1.0000   1.0000   1.0000
     1.0000   1.0000   1.0000   1.0000   1.0000   1.0000   1.0000   1.0000
     1.0000   1.0000   1.0000   1.0000   1.0000   1.0000   1.0000   1.0000
     1.0000   1.0000   1.0000   1.0000   1.0000   1.0000   1.0000   1.0000
     1.0000   1.0000   1.0000   1.0000   1.0000   1.0000   1.0000   1.0000
     1.0000   1.0000   1.0000   1.0000   1.0000   1.0000   1.0000   1.0000
     1.0000   1.0000   1.0000   1.0000   1.0000   1.0000   1.0000   1.0000
     1.0000   1.0000   1.0000   1.0000   1.0000   1.0000   1.0000   1.0000
     1.0000   1.0000   1.0000   1.0000   1.0000   1.0000   1.0000   1.0000
     1.0000   1.0000   1.0000   1.0000   1.0000   1.0000   1.0000   1.0000
     1.0000   1.0000   1.0000   1.0000   1.0000   1.0000   1.0000   1.0000
     1.0000   1.0000   1.0000   1.0000   1.0000   1.0000   1.0000   1.0000
     1.0000   1.0000   1.0000   1.0000   1.0000   1.0000   1.0000   1.0000
     1.0000   1.0000   1.0000   1.0000   1.0000   1.0000   1.0000   1.0000
     1.0000   1.0000   1.0000   1.0000   1.0000   1.0000   1.0000   1.0000
     1.0000   1.0000   1.0000   1.0000   1.0000   1.0000   1.0000   1.0000
     1.0000   1.0000   1.0000   1.0000   0.0000   0.0000   0.0000   0.0000
     0.0000   0.0000   0.0000   0.0000   0.0000   0.0000   0.0000   0.0000
     0.0000   0.0000   0.0000   0.0000   0.0000   0.0000   0.0000   0.0000
     0.0000   0.0000   0.0000   0.0000   0.0000   0.0000   0.0000   0.0000
     0.0000   0.0000   0.0000   0.0000   0.0000

          k = 0.0000 0.3536 0.0000 ( 26681 PWs)   bands (ev):

   -90.8417 -90.8396 -90.8396 -90.8387 -90.8371 -90.8371 -90.8354 -90.8354
   -90.8348 -90.8342 -90.8342 -90.8340 -90.8340 -90.8333 -90.8331 -90.8331
   -90.8326 -90.8325 -54.3666 -54.3666 -54.3656 -54.3639 -54.3639 -54.3599
   -54.3399 -54.3396 -54.3396 -54.3343 -54.3343 -54.3287 -54.3273 -54.3273
   -54.3269 -54.3210 -54.3209 -54.3159 -54.3143 -54.3134 -54.3134 -54.3121
   -54.3057 -54.3057 -54.3042 -54.3041 -54.3003 -54.3002 -54.3002 -54.2993
   -54.2972 -54.2972 -54.2943 -54.2928 -54.2928 -54.2892 -54.2881 -54.2868
   -54.2865 -54.2843 -54.2832 -54.2832 -54.2813 -54.2813 -54.2793 -54.2793
   -54.2790 -54.2790 -54.2737 -54.2726 -54.2725 -54.2693 -54.2693 -54.2679
    -4.4383  -4.3701  -4.3701  -4.3182  -4.2198  -4.2198  -4.0864  -4.0798
    -4.0757  -4.0502  -4.0502  -4.0250  -4.0047  -4.0047  -3.9842  -3.8559
    -3.8558  -3.8366  -3.8366  -3.8198  -3.7823  -3.7823  -3.7789  -3.7699
    -3.7699  -3.7676  -3.7387  -3.6806  -3.6806  -3.6718  -3.6718  -3.6544
    -3.5523  -3.5408  -3.5408  -3.3970  -3.3970  -3.3327  -3.2807  -3.2807
    -3.2368  -3.2175  -3.2175  -3.1984  -3.1983  -3.1488  -3.1487  -3.1375
    -3.1375  -3.1238  -3.1237  -3.0302  -3.0301  -3.0101  -2.9524  -2.9390
    -2.8716  -2.8537  -2.8537  -2.7972  -2.7972  -2.7475  -2.7475  -2.7138
    -2.7138  -2.7126  -2.7079  -2.7079  -2.6941  -2.6941  -2.6671  -2.6453
    -2.6153  -2.5522  -2.5522  -2.5195  -2.5195  -2.4788  -2.4544  -2.4434
    -2.4413  -2.4091  -2.4088  -2.3698  -2.3698  -2.3657  -2.3621  -2.2750
    -2.2749  -2.2364  -2.2364  -2.2272  -1.9912  -1.9912  -1.1087  -1.1086
    -0.1078   0.4422   0.8415   0.8415   0.9175   0.9176   1.5307   1.7644
     1.7644   1.8718   1.8718   3.1539   3.3144   3.3144   3.3441   3.3627
     3.3627   3.8365   3.8365   3.9313   4.3609   4.7341   4.7342   5.0548
     5.0649   5.0649   5.1301   5.1301   5.2928   5.3680   5.8958   5.8959
     5.9060   6.0801   6.1083   6.1084   6.2981

     occupation numbers 
     1.0000   1.0000   1.0000   1.0000   1.0000   1.0000   1.0000   1.0000
     1.0000   1.0000   1.0000   1.0000   1.0000   1.0000   1.0000   1.0000
     1.0000   1.0000   1.0000   1.0000   1.0000   1.0000   1.0000   1.0000
     1.0000   1.0000   1.0000   1.0000   1.0000   1.0000   1.0000   1.0000
     1.0000   1.0000   1.0000   1.0000   1.0000   1.0000   1.0000   1.0000
     1.0000   1.0000   1.0000   1.0000   1.0000   1.0000   1.0000   1.0000
     1.0000   1.0000   1.0000   1.0000   1.0000   1.0000   1.0000   1.0000
     1.0000   1.0000   1.0000   1.0000   1.0000   1.0000   1.0000   1.0000
     1.0000   1.0000   1.0000   1.0000   1.0000   1.0000   1.0000   1.0000
     1.0000   1.0000   1.0000   1.0000   1.0000   1.0000   1.0000   1.0000
     1.0000   1.0000   1.0000   1.0000   1.0000   1.0000   1.0000   1.0000
     1.0000   1.0000   1.0000   1.0000   1.0000   1.0000   1.0000   1.0000
     1.0000   1.0000   1.0000   1.0000   1.0000   1.0000   1.0000   1.0000
     1.0000   1.0000   1.0000   1.0000   1.0000   1.0000   1.0000   1.0000
     1.0000   1.0000   1.0000   1.0000   1.0000   1.0000   1.0000   1.0000
     1.0000   1.0000   1.0000   1.0000   1.0000   1.0000   1.0000   1.0000
     1.0000   1.0000   1.0000   1.0000   1.0000   1.0000   1.0000   1.0000
     1.0000   1.0000   1.0000   1.0000   1.0000   1.0000   1.0000   1.0000
     1.0000   1.0000   1.0000   1.0000   1.0000   1.0000   1.0000   1.0000
     1.0000   1.0000   1.0000   1.0000   1.0000   1.0000   1.0000   1.0000
     1.0000   1.0000   1.0000   1.0000   1.0000   1.0000   1.0000   1.0000
     1.0000   0.9888   0.0000   0.0000   0.0000   0.0000   0.0000   0.0000
     0.0000   0.0000   0.0000   0.0000   0.0000   0.0000   0.0000   0.0000
     0.0000   0.0000   0.0000   0.0000   0.0000   0.0000   0.0000   0.0000
     0.0000   0.0000   0.0000   0.0000   0.0000   0.0000   0.0000   0.0000
     0.0000   0.0000   0.0000   0.0000   0.0000

          k = 0.0000-0.7071 0.0000 ( 26726 PWs)   bands (ev):

   -90.8405 -90.8404 -90.8386 -90.8386 -90.8385 -90.8385 -90.8349 -90.8348
   -90.8348 -90.8348 -90.8335 -90.8334 -90.8334 -90.8334 -90.8333 -90.8332
   -90.8330 -90.8329 -54.3698 -54.3697 -54.3697 -54.3696 -54.3674 -54.3673
   -54.3276 -54.3276 -54.3276 -54.3276 -54.3249 -54.3248 -54.3230 -54.3230
   -54.3230 -54.3230 -54.3227 -54.3226 -54.3170 -54.3169 -54.3149 -54.3149
   -54.3149 -54.3149 -54.3015 -54.3015 -54.3014 -54.3014 -54.2957 -54.2957
   -54.2956 -54.2955 -54.2953 -54.2952 -54.2922 -54.2921 -54.2916 -54.2915
   -54.2875 -54.2875 -54.2851 -54.2850 -54.2850 -54.2849 -54.2786 -54.2786
   -54.2785 -54.2785 -54.2706 -54.2705 -54.2701 -54.2700 -54.2700 -54.2700
    -4.1737  -4.1736  -4.1234  -4.1234  -4.0946  -4.0946  -4.0794  -4.0794
    -4.0793  -4.0793  -4.0774  -4.0773  -4.0773  -4.0773  -3.9294  -3.9293
    -3.8963  -3.8962  -3.8962  -3.8962  -3.8922  -3.8921  -3.8921  -3.8920
    -3.7434  -3.7434  -3.7114  -3.7113  -3.6339  -3.6339  -3.6339  -3.6339
    -3.4878  -3.4878  -3.4008  -3.4008  -3.4007  -3.4007  -3.2976  -3.2976
    -3.2976  -3.2976  -3.2975  -3.2975  -3.2746  -3.2746  -3.2746  -3.2746
    -3.1561  -3.1561  -3.1561  -3.1561  -2.9814  -2.9813  -2.9813  -2.9812
    -2.9706  -2.9705  -2.8118  -2.8117  -2.7496  -2.7496  -2.7495  -2.7495
    -2.7213  -2.7213  -2.7213  -2.7213  -2.6608  -2.6608  -2.6608  -2.6608
    -2.6264  -2.6264  -2.5065  -2.5065  -2.4653  -2.4653  -2.4451  -2.4451
    -2.4450  -2.4450  -2.4353  -2.4353  -2.3961  -2.3960  -2.3485  -2.3485
    -2.2072  -2.2071  -2.2071  -2.2070  -1.6259  -1.6259  -1.6259  -1.6259
     0.8677   0.8677   1.1972   1.1972   1.1972   1.1973   1.5438   1.5438
     2.4139   2.4140   2.4140   2.4140   2.4628   2.4628   2.4628   2.4628
     3.7357   3.7358   4.3248   4.3248   4.3248   4.3248   4.9847   4.9847
     5.4073   5.4073   5.4074   5.4075   5.4506   5.4507   5.4982   5.4982
     5.4982   5.4982   5.7178   5.7178   5.9269

     occupation numbers 
     1.0000   1.0000   1.0000   1.0000   1.0000   1.0000   1.0000   1.0000
     1.0000   1.0000   1.0000   1.0000   1.0000   1.0000   1.0000   1.0000
     1.0000   1.0000   1.0000   1.0000   1.0000   1.0000   1.0000   1.0000
     1.0000   1.0000   1.0000   1.0000   1.0000   1.0000   1.0000   1.0000
     1.0000   1.0000   1.0000   1.0000   1.0000   1.0000   1.0000   1.0000
     1.0000   1.0000   1.0000   1.0000   1.0000   1.0000   1.0000   1.0000
     1.0000   1.0000   1.0000   1.0000   1.0000   1.0000   1.0000   1.0000
     1.0000   1.0000   1.0000   1.0000   1.0000   1.0000   1.0000   1.0000
     1.0000   1.0000   1.0000   1.0000   1.0000   1.0000   1.0000   1.0000
     1.0000   1.0000   1.0000   1.0000   1.0000   1.0000   1.0000   1.0000
     1.0000   1.0000   1.0000   1.0000   1.0000   1.0000   1.0000   1.0000
     1.0000   1.0000   1.0000   1.0000   1.0000   1.0000   1.0000   1.0000
     1.0000   1.0000   1.0000   1.0000   1.0000   1.0000   1.0000   1.0000
     1.0000   1.0000   1.0000   1.0000   1.0000   1.0000   1.0000   1.0000
     1.0000   1.0000   1.0000   1.0000   1.0000   1.0000   1.0000   1.0000
     1.0000   1.0000   1.0000   1.0000   1.0000   1.0000   1.0000   1.0000
     1.0000   1.0000   1.0000   1.0000   1.0000   1.0000   1.0000   1.0000
     1.0000   1.0000   1.0000   1.0000   1.0000   1.0000   1.0000   1.0000
     1.0000   1.0000   1.0000   1.0000   1.0000   1.0000   1.0000   1.0000
     1.0000   1.0000   1.0000   1.0000   1.0000   1.0000   1.0000   1.0000
     1.0000   1.0000   1.0000   1.0000   1.0000   1.0000   1.0000   1.0000
     0.0000   0.0000   0.0000   0.0000   0.0000   0.0000   0.0000   0.0000
     0.0000   0.0000   0.0000   0.0000   0.0000   0.0000   0.0000   0.0000
     0.0000   0.0000   0.0000   0.0000   0.0000   0.0000   0.0000   0.0000
     0.0000   0.0000   0.0000   0.0000   0.0000   0.0000   0.0000   0.0000
     0.0000   0.0000   0.0000   0.0000   0.0000

          k = 0.2500 0.0000 0.0000 ( 26687 PWs)   bands (ev):

   -90.8420 -90.8408 -90.8389 -90.8366 -90.8366 -90.8366 -90.8360 -90.8360
   -90.8350 -90.8350 -90.8347 -90.8339 -90.8339 -90.8336 -90.8330 -90.8330
   -90.8324 -90.8324 -54.3559 -54.3559 -54.3550 -54.3550 -54.3549 -54.3549
   -54.3527 -54.3527 -54.3488 -54.3487 -54.3456 -54.3456 -54.3284 -54.3283
   -54.3268 -54.3232 -54.3188 -54.3149 -54.3085 -54.3085 -54.3083 -54.3083
   -54.3068 -54.3060 -54.3060 -54.3035 -54.3027 -54.3027 -54.2999 -54.2999
   -54.2979 -54.2979 -54.2975 -54.2915 -54.2883 -54.2870 -54.2870 -54.2864
   -54.2835 -54.2829 -54.2829 -54.2828 -54.2791 -54.2791 -54.2778 -54.2778
   -54.2770 -54.2770 -54.2767 -54.2767 -54.2765 -54.2713 -54.2674 -54.2670
    -4.5352  -4.5021  -4.4496  -4.4492  -4.3752  -4.3565  -3.9976  -3.9976
    -3.9523  -3.9523  -3.9516  -3.9515  -3.9492  -3.9492  -3.8958  -3.8958
    -3.8957  -3.8957  -3.8733  -3.8733  -3.8310  -3.8310  -3.8231  -3.8231
    -3.8087  -3.7813  -3.7565  -3.7565  -3.7229  -3.7229  -3.6810  -3.6810
    -3.5962  -3.5848  -3.3626  -3.3377  -3.3202  -3.2846  -3.2846  -3.2480
    -3.2480  -3.2381  -3.1945  -3.1944  -3.1183  -3.1001  -3.0998  -3.0511
    -3.0242  -3.0133  -3.0133  -2.9197  -2.9197  -2.9157  -2.9120  -2.9120
    -2.8700  -2.8700  -2.8329  -2.8081  -2.8081  -2.8016  -2.7653  -2.7653
    -2.7521  -2.7130  -2.7130  -2.7001  -2.7001  -2.6841  -2.5735  -2.5614
    -2.5614  -2.5490  -2.5247  -2.5247  -2.5161  -2.5161  -2.4869  -2.4868
    -2.4770  -2.4770  -2.4670  -2.4218  -2.4218  -2.3833  -2.3709  -2.3709
    -2.2796  -2.2065  -2.1750  -2.1713  -1.6865  -1.4029  -1.4028  -0.7885
    -0.7885  -0.1107   0.3275   0.3276   0.3530   0.7836   1.8560   1.8560
     2.0168   2.2646   2.4686   2.4686   2.7578   2.7578   3.2591   3.2615
     3.6058   4.4754   4.5547   4.5547   4.7798   4.7799   4.9639   5.1311
     5.1872   5.2449   5.2450   5.3428   5.6599   5.6599   5.7098   5.7098
     5.7142   5.7142   5.8102   6.4130   6.6300

     occupation numbers 
     1.0000   1.0000   1.0000   1.0000   1.0000   1.0000   1.0000   1.0000
     1.0000   1.0000   1.0000   1.0000   1.0000   1.0000   1.0000   1.0000
     1.0000   1.0000   1.0000   1.0000   1.0000   1.0000   1.0000   1.0000
     1.0000   1.0000   1.0000   1.0000   1.0000   1.0000   1.0000   1.0000
     1.0000   1.0000   1.0000   1.0000   1.0000   1.0000   1.0000   1.0000
     1.0000   1.0000   1.0000   1.0000   1.0000   1.0000   1.0000   1.0000
     1.0000   1.0000   1.0000   1.0000   1.0000   1.0000   1.0000   1.0000
     1.0000   1.0000   1.0000   1.0000   1.0000   1.0000   1.0000   1.0000
     1.0000   1.0000   1.0000   1.0000   1.0000   1.0000   1.0000   1.0000
     1.0000   1.0000   1.0000   1.0000   1.0000   1.0000   1.0000   1.0000
     1.0000   1.0000   1.0000   1.0000   1.0000   1.0000   1.0000   1.0000
     1.0000   1.0000   1.0000   1.0000   1.0000   1.0000   1.0000   1.0000
     1.0000   1.0000   1.0000   1.0000   1.0000   1.0000   1.0000   1.0000
     1.0000   1.0000   1.0000   1.0000   1.0000   1.0000   1.0000   1.0000
     1.0000   1.0000   1.0000   1.0000   1.0000   1.0000   1.0000   1.0000
     1.0000   1.0000   1.0000   1.0000   1.0000   1.0000   1.0000   1.0000
     1.0000   1.0000   1.0000   1.0000   1.0000   1.0000   1.0000   1.0000
     1.0000   1.0000   1.0000   1.0000   1.0000   1.0000   1.0000   1.0000
     1.0000   1.0000   1.0000   1.0000   1.0000   1.0000   1.0000   1.0000
     1.0000   1.0000   1.0000   1.0000   1.0000   1.0000   1.0000   1.0000
     1.0000   1.0000   1.0000   1.0000   1.0000   1.0000   1.0000   1.0000
     1.0000   1.0000   1.0000   1.0000   1.0000   0.0000   0.0000   0.0000
     0.0000   0.0000   0.0000   0.0000   0.0000   0.0000   0.0000   0.0000
     0.0000   0.0000   0.0000   0.0000   0.0000   0.0000   0.0000   0.0000
     0.0000   0.0000   0.0000   0.0000   0.0000   0.0000   0.0000   0.0000
     0.0000   0.0000   0.0000   0.0000   0.0000

          k = 0.2500 0.3536 0.0000 ( 26718 PWs)   bands (ev):

   -90.8416 -90.8404 -90.8386 -90.8386 -90.8378 -90.8364 -90.8364 -90.8348
   -90.8348 -90.8345 -90.8345 -90.8340 -90.8335 -90.8334 -90.8334 -90.8329
   -90.8326 -90.8326 -54.3671 -54.3664 -54.3659 -54.3655 -54.3628 -54.3600
   -54.3406 -54.3402 -54.3389 -54.3360 -54.3320 -54.3289 -54.3275 -54.3270
   -54.3268 -54.3235 -54.3185 -54.3166 -54.3152 -54.3151 -54.3120 -54.3112
   -54.3082 -54.3064 -54.3028 -54.3022 -54.3009 -54.3000 -54.2999 -54.2998
   -54.2980 -54.2966 -54.2964 -54.2945 -54.2904 -54.2884 -54.2875 -54.2872
   -54.2863 -54.2853 -54.2839 -54.2825 -54.2823 -54.2823 -54.2817 -54.2812
   -54.2766 -54.2763 -54.2733 -54.2730 -54.2724 -54.2715 -54.2678 -54.2677
    -4.4316  -4.3944  -4.3385  -4.2957  -4.2544  -4.2140  -4.0806  -4.0718
    -4.0715  -4.0641  -4.0336  -4.0183  -4.0071  -3.9840  -3.9582  -3.9260
    -3.8935  -3.8197  -3.8166  -3.8073  -3.8033  -3.7989  -3.7808  -3.7705
    -3.7640  -3.7609  -3.7589  -3.7509  -3.7297  -3.6145  -3.5999  -3.5952
    -3.5703  -3.5443  -3.5359  -3.4759  -3.3584  -3.3476  -3.3225  -3.2731
    -3.2576  -3.2397  -3.2278  -3.1786  -3.1692  -3.1473  -3.1134  -3.1123
    -3.1014  -3.0982  -3.0612  -3.0561  -3.0249  -2.9732  -2.9710  -2.9503
    -2.9170  -2.8844  -2.8713  -2.8712  -2.8087  -2.8061  -2.8020  -2.7234
    -2.7030  -2.6860  -2.6802  -2.6801  -2.6677  -2.6527  -2.6421  -2.6077
    -2.6061  -2.5987  -2.5819  -2.5634  -2.5107  -2.4649  -2.4527  -2.4464
    -2.4420  -2.4319  -2.4293  -2.4120  -2.3271  -2.3209  -2.3104  -2.2769
    -2.2519  -2.2514  -2.2452  -2.2304  -2.2204  -1.5938  -1.4841  -0.4956
    -0.0406   0.0465   0.4773   0.5031   0.9209   1.0510   1.4723   1.5889
     1.9229   2.2089   2.4687   2.8112   3.2179   3.3970   3.4418   3.5176
     3.5560   3.7561   3.8448   3.9811   4.3812   4.4199   4.6777   4.7421
     4.8522   5.0999   5.1933   5.2731   5.2997   5.4666   5.9327   5.9738
     6.0244   6.1221   6.1322   6.2054   6.2877

     occupation numbers 
     1.0000   1.0000   1.0000   1.0000   1.0000   1.0000   1.0000   1.0000
     1.0000   1.0000   1.0000   1.0000   1.0000   1.0000   1.0000   1.0000
     1.0000   1.0000   1.0000   1.0000   1.0000   1.0000   1.0000   1.0000
     1.0000   1.0000   1.0000   1.0000   1.0000   1.0000   1.0000   1.0000
     1.0000   1.0000   1.0000   1.0000   1.0000   1.0000   1.0000   1.0000
     1.0000   1.0000   1.0000   1.0000   1.0000   1.0000   1.0000   1.0000
     1.0000   1.0000   1.0000   1.0000   1.0000   1.0000   1.0000   1.0000
     1.0000   1.0000   1.0000   1.0000   1.0000   1.0000   1.0000   1.0000
     1.0000   1.0000   1.0000   1.0000   1.0000   1.0000   1.0000   1.0000
     1.0000   1.0000   1.0000   1.0000   1.0000   1.0000   1.0000   1.0000
     1.0000   1.0000   1.0000   1.0000   1.0000   1.0000   1.0000   1.0000
     1.0000   1.0000   1.0000   1.0000   1.0000   1.0000   1.0000   1.0000
     1.0000   1.0000   1.0000   1.0000   1.0000   1.0000   1.0000   1.0000
     1.0000   1.0000   1.0000   1.0000   1.0000   1.0000   1.0000   1.0000
     1.0000   1.0000   1.0000   1.0000   1.0000   1.0000   1.0000   1.0000
     1.0000   1.0000   1.0000   1.0000   1.0000   1.0000   1.0000   1.0000
     1.0000   1.0000   1.0000   1.0000   1.0000   1.0000   1.0000   1.0000
     1.0000   1.0000   1.0000   1.0000   1.0000   1.0000   1.0000   1.0000
     1.0000   1.0000   1.0000   1.0000   1.0000   1.0000   1.0000   1.0000
     1.0000   1.0000   1.0000   1.0000   1.0000   1.0000   1.0000   1.0000
     1.0000   1.0000   1.0000   1.0000   1.0000   1.0000   1.0000   1.0000
     1.0000   1.0000   0.8565   0.5678   0.0000   0.0000   0.0000   0.0000
     0.0000   0.0000   0.0000   0.0000   0.0000   0.0000   0.0000   0.0000
     0.0000   0.0000   0.0000   0.0000   0.0000   0.0000   0.0000   0.0000
     0.0000   0.0000   0.0000   0.0000   0.0000   0.0000   0.0000   0.0000
     0.0000   0.0000   0.0000   0.0000   0.0000

          k = 0.2500-0.7071 0.0000 ( 26680 PWs)   bands (ev):

   -90.8404 -90.8403 -90.8393 -90.8393 -90.8377 -90.8376 -90.8357 -90.8357
   -90.8341 -90.8340 -90.8335 -90.8334 -90.8334 -90.8334 -90.8333 -90.8332
   -90.8331 -90.8330 -54.3704 -54.3703 -54.3689 -54.3688 -54.3680 -54.3679
   -54.3277 -54.3277 -54.3271 -54.3271 -54.3254 -54.3253 -54.3248 -54.3248
   -54.3218 -54.3217 -54.3204 -54.3204 -54.3174 -54.3174 -54.3174 -54.3173
   -54.3114 -54.3114 -54.3042 -54.3042 -54.2986 -54.2986 -54.2960 -54.2958
   -54.2957 -54.2957 -54.2954 -54.2953 -54.2933 -54.2932 -54.2900 -54.2899
   -54.2863 -54.2862 -54.2862 -54.2861 -54.2841 -54.2840 -54.2814 -54.2813
   -54.2759 -54.2758 -54.2716 -54.2716 -54.2701 -54.2700 -54.2693 -54.2693
    -4.1615  -4.1614  -4.1218  -4.1218  -4.1046  -4.1046  -4.1001  -4.1000
    -4.0750  -4.0750  -4.0526  -4.0526  -4.0474  -4.0473  -3.9535  -3.9535
    -3.9507  -3.9506  -3.9069  -3.9068  -3.8586  -3.8586  -3.8586  -3.8586
    -3.7791  -3.7790  -3.7328  -3.7327  -3.6451  -3.6450  -3.5142  -3.5141
    -3.4933  -3.4933  -3.4510  -3.4509  -3.4279  -3.4278  -3.3612  -3.3612
    -3.3023  -3.3022  -3.2959  -3.2958  -3.2796  -3.2795  -3.2334  -3.2333
    -3.1481  -3.1480  -3.0863  -3.0863  -2.9847  -2.9846  -2.9790  -2.9789
    -2.9374  -2.9373  -2.8546  -2.8545  -2.8421  -2.8420  -2.8292  -2.8291
    -2.6766  -2.6766  -2.6596  -2.6595  -2.6377  -2.6377  -2.6174  -2.6174
    -2.6048  -2.6048  -2.5045  -2.5045  -2.4955  -2.4955  -2.4892  -2.4891
    -2.4178  -2.4178  -2.4046  -2.4046  -2.3646  -2.3645  -2.3551  -2.3551
    -2.2572  -2.2571  -2.1719  -2.1718  -2.0242  -2.0242  -1.0691  -1.0690
     0.4535   0.4536   0.9278   0.9279   1.3098   1.3099   1.6062   1.6063
     2.0659   2.0659   2.7478   2.7478   2.7630   2.7630   3.0285   3.0286
     3.7916   3.7916   3.9587   3.9587   4.1858   4.1859   5.0417   5.0418
     5.0889   5.0890   5.2342   5.2343   5.3923   5.3924   5.4987   5.4987
     5.6384   5.6384   5.6925   5.6926   5.8442

     occupation numbers 
     1.0000   1.0000   1.0000   1.0000   1.0000   1.0000   1.0000   1.0000
     1.0000   1.0000   1.0000   1.0000   1.0000   1.0000   1.0000   1.0000
     1.0000   1.0000   1.0000   1.0000   1.0000   1.0000   1.0000   1.0000
     1.0000   1.0000   1.0000   1.0000   1.0000   1.0000   1.0000   1.0000
     1.0000   1.0000   1.0000   1.0000   1.0000   1.0000   1.0000   1.0000
     1.0000   1.0000   1.0000   1.0000   1.0000   1.0000   1.0000   1.0000
     1.0000   1.0000   1.0000   1.0000   1.0000   1.0000   1.0000   1.0000
     1.0000   1.0000   1.0000   1.0000   1.0000   1.0000   1.0000   1.0000
     1.0000   1.0000   1.0000   1.0000   1.0000   1.0000   1.0000   1.0000
     1.0000   1.0000   1.0000   1.0000   1.0000   1.0000   1.0000   1.0000
     1.0000   1.0000   1.0000   1.0000   1.0000   1.0000   1.0000   1.0000
     1.0000   1.0000   1.0000   1.0000   1.0000   1.0000   1.0000   1.0000
     1.0000   1.0000   1.0000   1.0000   1.0000   1.0000   1.0000   1.0000
     1.0000   1.0000   1.0000   1.0000   1.0000   1.0000   1.0000   1.0000
     1.0000   1.0000   1.0000   1.0000   1.0000   1.0000   1.0000   1.0000
     1.0000   1.0000   1.0000   1.0000   1.0000   1.0000   1.0000   1.0000
     1.0000   1.0000   1.0000   1.0000   1.0000   1.0000   1.0000   1.0000
     1.0000   1.0000   1.0000   1.0000   1.0000   1.0000   1.0000   1.0000
     1.0000   1.0000   1.0000   1.0000   1.0000   1.0000   1.0000   1.0000
     1.0000   1.0000   1.0000   1.0000   1.0000   1.0000   1.0000   1.0000
     1.0000   1.0000   1.0000   1.0000   1.0000   1.0000   1.0000   1.0000
     0.9705   0.9704   0.0000   0.0000   0.0000   0.0000   0.0000   0.0000
     0.0000   0.0000   0.0000   0.0000   0.0000   0.0000   0.0000   0.0000
     0.0000   0.0000   0.0000   0.0000   0.0000   0.0000   0.0000   0.0000
     0.0000   0.0000   0.0000   0.0000   0.0000   0.0000   0.0000   0.0000
     0.0000   0.0000   0.0000   0.0000   0.0000

          k =-0.5000 0.0000 0.0000 ( 26682 PWs)   bands (ev):

   -90.8416 -90.8415 -90.8379 -90.8377 -90.8364 -90.8364 -90.8363 -90.8363
   -90.8346 -90.8345 -90.8344 -90.8344 -90.8341 -90.8340 -90.8326 -90.8326
   -90.8325 -90.8325 -54.3554 -54.3554 -54.3553 -54.3553 -54.3541 -54.3540
   -54.3540 -54.3539 -54.3469 -54.3469 -54.3468 -54.3468 -54.3291 -54.3290
   -54.3256 -54.3256 -54.3171 -54.3170 -54.3080 -54.3080 -54.3080 -54.3080
   -54.3056 -54.3055 -54.3043 -54.3043 -54.3043 -54.3042 -54.2984 -54.2984
   -54.2983 -54.2983 -54.2953 -54.2952 -54.2864 -54.2864 -54.2851 -54.2851
   -54.2851 -54.2851 -54.2842 -54.2841 -54.2776 -54.2776 -54.2776 -54.2775
   -54.2773 -54.2773 -54.2772 -54.2772 -54.2742 -54.2742 -54.2674 -54.2673
    -4.5214  -4.5213  -4.4128  -4.4128  -4.3981  -4.3980  -3.9547  -3.9547
    -3.9547  -3.9546  -3.9340  -3.9340  -3.9339  -3.9339  -3.9233  -3.9233
    -3.9233  -3.9233  -3.8472  -3.8472  -3.8471  -3.8471  -3.8218  -3.8217
    -3.8217  -3.8217  -3.8167  -3.8167  -3.6979  -3.6978  -3.6978  -3.6978
    -3.4776  -3.4776  -3.4725  -3.4725  -3.2744  -3.2744  -3.2322  -3.2322
    -3.2322  -3.2322  -3.1340  -3.1340  -3.1340  -3.1340  -3.1107  -3.1106
    -3.0698  -3.0698  -2.9209  -2.9209  -2.9208  -2.9208  -2.9176  -2.9176
    -2.8667  -2.8666  -2.8450  -2.8449  -2.8449  -2.8449  -2.7469  -2.7469
    -2.7106  -2.7106  -2.7105  -2.7105  -2.6022  -2.6022  -2.6021  -2.6021
    -2.5802  -2.5801  -2.5507  -2.5507  -2.5507  -2.5507  -2.4979  -2.4979
    -2.4978  -2.4978  -2.4319  -2.4319  -2.3893  -2.3893  -2.3892  -2.3892
    -2.2390  -2.2390  -2.1712  -2.1711  -1.1604  -1.1604  -1.1604  -1.1603
    -0.9623  -0.9623   0.5301   0.5302   1.0579   1.0580   1.0580   1.0580
     2.6177   2.6177   2.6178   2.6178   2.6203   2.6203   3.3782   3.3783
     3.4081   3.4082   5.0733   5.0733   5.0917   5.0918   5.0918   5.0918
     5.4272   5.4272   5.4272   5.4272   5.5222   5.5222   5.5953   5.5953
     5.5953   5.5953   5.7256   5.7281   6.2259

     occupation numbers 
     1.0000   1.0000   1.0000   1.0000   1.0000   1.0000   1.0000   1.0000
     1.0000   1.0000   1.0000   1.0000   1.0000   1.0000   1.0000   1.0000
     1.0000   1.0000   1.0000   1.0000   1.0000   1.0000   1.0000   1.0000
     1.0000   1.0000   1.0000   1.0000   1.0000   1.0000   1.0000   1.0000
     1.0000   1.0000   1.0000   1.0000   1.0000   1.0000   1.0000   1.0000
     1.0000   1.0000   1.0000   1.0000   1.0000   1.0000   1.0000   1.0000
     1.0000   1.0000   1.0000   1.0000   1.0000   1.0000   1.0000   1.0000
     1.0000   1.0000   1.0000   1.0000   1.0000   1.0000   1.0000   1.0000
     1.0000   1.0000   1.0000   1.0000   1.0000   1.0000   1.0000   1.0000
     1.0000   1.0000   1.0000   1.0000   1.0000   1.0000   1.0000   1.0000
     1.0000   1.0000   1.0000   1.0000   1.0000   1.0000   1.0000   1.0000
     1.0000   1.0000   1.0000   1.0000   1.0000   1.0000   1.0000   1.0000
     1.0000   1.0000   1.0000   1.0000   1.0000   1.0000   1.0000   1.0000
     1.0000   1.0000   1.0000   1.0000   1.0000   1.0000   1.0000   1.0000
     1.0000   1.0000   1.0000   1.0000   1.0000   1.0000   1.0000   1.0000
     1.0000   1.0000   1.0000   1.0000   1.0000   1.0000   1.0000   1.0000
     1.0000   1.0000   1.0000   1.0000   1.0000   1.0000   1.0000   1.0000
     1.0000   1.0000   1.0000   1.0000   1.0000   1.0000   1.0000   1.0000
     1.0000   1.0000   1.0000   1.0000   1.0000   1.0000   1.0000   1.0000
     1.0000   1.0000   1.0000   1.0000   1.0000   1.0000   1.0000   1.0000
     1.0000   1.0000   1.0000   1.0000   1.0000   1.0000   1.0000   1.0000
     1.0000   1.0000   0.2220   0.2213   0.0000   0.0000   0.0000   0.0000
     0.0000   0.0000   0.0000   0.0000   0.0000   0.0000   0.0000   0.0000
     0.0000   0.0000   0.0000   0.0000   0.0000   0.0000   0.0000   0.0000
     0.0000   0.0000   0.0000   0.0000   0.0000   0.0000   0.0000   0.0000
     0.0000   0.0000   0.0000   0.0000   0.0000

          k =-0.5000 0.3536 0.0000 ( 26714 PWs)   bands (ev):

   -90.8412 -90.8411 -90.8383 -90.8382 -90.8375 -90.8374 -90.8356 -90.8355
   -90.8347 -90.8346 -90.8339 -90.8338 -90.8337 -90.8336 -90.8330 -90.8329
   -90.8327 -90.8327 -54.3665 -54.3664 -54.3659 -54.3659 -54.3610 -54.3609
   -54.3407 -54.3406 -54.3378 -54.3378 -54.3303 -54.3302 -54.3275 -54.3275
   -54.3251 -54.3251 -54.3168 -54.3167 -54.3161 -54.3160 -54.3104 -54.3103
   -54.3093 -54.3092 -54.3009 -54.3008 -54.2999 -54.2998 -54.2995 -54.2994
   -54.2987 -54.2986 -54.2957 -54.2956 -54.2885 -54.2885 -54.2869 -54.2869
   -54.2856 -54.2855 -54.2844 -54.2843 -54.2830 -54.2829 -54.2811 -54.2810
   -54.2750 -54.2750 -54.2734 -54.2734 -54.2727 -54.2726 -54.2679 -54.2678
    -4.4152  -4.4151  -4.2982  -4.2981  -4.2472  -4.2471  -4.0801  -4.0800
    -4.0569  -4.0568  -4.0050  -4.0049  -3.9887  -3.9886  -3.9578  -3.9577
    -3.8852  -3.8851  -3.8066  -3.8065  -3.8043  -3.8043  -3.8040  -3.8040
    -3.7688  -3.7688  -3.7545  -3.7545  -3.6716  -3.6715  -3.5708  -3.5707
    -3.5192  -3.5191  -3.4900  -3.4900  -3.4517  -3.4517  -3.2862  -3.2861
    -3.2456  -3.2455  -3.1996  -3.1995  -3.1429  -3.1429  -3.0638  -3.0637
    -3.0401  -3.0400  -3.0299  -3.0298  -3.0286  -3.0285  -2.9901  -2.9900
    -2.9317  -2.9316  -2.9200  -2.9199  -2.8498  -2.8497  -2.7561  -2.7560
    -2.6757  -2.6756  -2.6575  -2.6574  -2.6452  -2.6452  -2.6443  -2.6443
    -2.6009  -2.6008  -2.5649  -2.5649  -2.4882  -2.4881  -2.4766  -2.4765
    -2.4360  -2.4360  -2.4031  -2.4030  -2.3604  -2.3604  -2.2846  -2.2846
    -2.2758  -2.2757  -2.2373  -2.2372  -1.9589  -1.9589  -0.7855  -0.7855
     0.1567   0.1568   0.2375   0.2375   0.6783   0.6784   1.7473   1.7474
     2.1234   2.1234   2.8047   2.8048   3.3795   3.3795   3.5479   3.5480
     3.5727   3.5727   4.1109   4.1110   4.1310   4.1310   4.5917   4.5918
     4.9061   4.9061   5.2128   5.2128   5.6443   5.6443   5.7471   5.8415
     5.8441   6.1682   6.1683   6.2697   6.2698

     occupation numbers 
     1.0000   1.0000   1.0000   1.0000   1.0000   1.0000   1.0000   1.0000
     1.0000   1.0000   1.0000   1.0000   1.0000   1.0000   1.0000   1.0000
     1.0000   1.0000   1.0000   1.0000   1.0000   1.0000   1.0000   1.0000
     1.0000   1.0000   1.0000   1.0000   1.0000   1.0000   1.0000   1.0000
     1.0000   1.0000   1.0000   1.0000   1.0000   1.0000   1.0000   1.0000
     1.0000   1.0000   1.0000   1.0000   1.0000   1.0000   1.0000   1.0000
     1.0000   1.0000   1.0000   1.0000   1.0000   1.0000   1.0000   1.0000
     1.0000   1.0000   1.0000   1.0000   1.0000   1.0000   1.0000   1.0000
     1.0000   1.0000   1.0000   1.0000   1.0000   1.0000   1.0000   1.0000
     1.0000   1.0000   1.0000   1.0000   1.0000   1.0000   1.0000   1.0000
     1.0000   1.0000   1.0000   1.0000   1.0000   1.0000   1.0000   1.0000
     1.0000   1.0000   1.0000   1.0000   1.0000   1.0000   1.0000   1.0000
     1.0000   1.0000   1.0000   1.0000   1.0000   1.0000   1.0000   1.0000
     1.0000   1.0000   1.0000   1.0000   1.0000   1.0000   1.0000   1.0000
     1.0000   1.0000   1.0000   1.0000   1.0000   1.0000   1.0000   1.0000
     1.0000   1.0000   1.0000   1.0000   1.0000   1.0000   1.0000   1.0000
     1.0000   1.0000   1.0000   1.0000   1.0000   1.0000   1.0000   1.0000
     1.0000   1.0000   1.0000   1.0000   1.0000   1.0000   1.0000   1.0000
     1.0000   1.0000   1.0000   1.0000   1.0000   1.0000   1.0000   1.0000
     1.0000   1.0000   1.0000   1.0000   1.0000   1.0000   1.0000   1.0000
     1.0000   1.0000   1.0000   1.0000   1.0000   1.0000   1.0000   1.0000
     1.0000   1.0000   1.0000   1.0000   0.0000   0.0000   0.0000   0.0000
     0.0000   0.0000   0.0000   0.0000   0.0000   0.0000   0.0000   0.0000
     0.0000   0.0000   0.0000   0.0000   0.0000   0.0000   0.0000   0.0000
     0.0000   0.0000   0.0000   0.0000   0.0000   0.0000   0.0000   0.0000
     0.0000   0.0000   0.0000   0.0000   0.0000

          k =-0.5000-0.7071 0.0000 ( 26604 PWs)   bands (ev):

   -90.8400 -90.8399 -90.8399 -90.8398 -90.8368 -90.8367 -90.8367 -90.8366
   -90.8335 -90.8335 -90.8335 -90.8334 -90.8334 -90.8334 -90.8334 -90.8333
   -90.8333 -90.8332 -54.3703 -54.3702 -54.3683 -54.3682 -54.3682 -54.3681
   -54.3265 -54.3265 -54.3265 -54.3265 -54.3264 -54.3264 -54.3264 -54.3264
   -54.3196 -54.3196 -54.3196 -54.3196 -54.3183 -54.3183 -54.3182 -54.3182
   -54.3080 -54.3079 -54.3079 -54.3078 -54.2966 -54.2966 -54.2965 -54.2965
   -54.2958 -54.2956 -54.2941 -54.2941 -54.2940 -54.2939 -54.2878 -54.2878
   -54.2877 -54.2876 -54.2839 -54.2839 -54.2839 -54.2838 -54.2831 -54.2830
   -54.2736 -54.2735 -54.2735 -54.2735 -54.2692 -54.2691 -54.2691 -54.2690
    -4.1331  -4.1330  -4.1330  -4.1329  -4.1150  -4.1149  -4.1149  -4.1148
    -4.0406  -4.0405  -4.0223  -4.0223  -4.0223  -4.0222  -4.0040  -4.0040
    -4.0039  -4.0039  -3.8652  -3.8651  -3.8651  -3.8651  -3.8501  -3.8500
    -3.7839  -3.7839  -3.7838  -3.7838  -3.5445  -3.5445  -3.5445  -3.5444
    -3.4895  -3.4895  -3.4894  -3.4894  -3.4040  -3.4040  -3.4040  -3.4040
    -3.2907  -3.2907  -3.2907  -3.2907  -3.2903  -3.2903  -3.2902  -3.2902
    -3.0256  -3.0255  -3.0255  -3.0255  -3.0017  -3.0017  -3.0016  -3.0016
    -2.9269  -2.9268  -2.9238  -2.9237  -2.8760  -2.8760  -2.8760  -2.8759
    -2.6595  -2.6595  -2.6595  -2.6595  -2.5756  -2.5755  -2.5755  -2.5755
    -2.5561  -2.5561  -2.5561  -2.5561  -2.5248  -2.5247  -2.5247  -2.5246
    -2.3741  -2.3741  -2.3741  -2.3740  -2.3126  -2.3126  -2.3126  -2.3125
    -2.2819  -2.2819  -2.2819  -2.2819  -2.1588  -2.1588  -0.3623  -0.3623
    -0.3623  -0.3622   1.0966   1.0967   1.0967   1.0967   1.7865   1.7865
     1.7866   1.7866   2.9351   2.9352   3.3246   3.3246   3.3246   3.3247
     3.9526   3.9526   3.9526   3.9526   4.1124   4.1125   4.1125   4.1125
     4.8772   4.8773   5.1992   5.1993   5.1993   5.1994   5.6214   5.6215
     5.6215   5.6215   6.0101   6.0101   6.0101

     occupation numbers 
     1.0000   1.0000   1.0000   1.0000   1.0000   1.0000   1.0000   1.0000
     1.0000   1.0000   1.0000   1.0000   1.0000   1.0000   1.0000   1.0000
     1.0000   1.0000   1.0000   1.0000   1.0000   1.0000   1.0000   1.0000
     1.0000   1.0000   1.0000   1.0000   1.0000   1.0000   1.0000   1.0000
     1.0000   1.0000   1.0000   1.0000   1.0000   1.0000   1.0000   1.0000
     1.0000   1.0000   1.0000   1.0000   1.0000   1.0000   1.0000   1.0000
     1.0000   1.0000   1.0000   1.0000   1.0000   1.0000   1.0000   1.0000
     1.0000   1.0000   1.0000   1.0000   1.0000   1.0000   1.0000   1.0000
     1.0000   1.0000   1.0000   1.0000   1.0000   1.0000   1.0000   1.0000
     1.0000   1.0000   1.0000   1.0000   1.0000   1.0000   1.0000   1.0000
     1.0000   1.0000   1.0000   1.0000   1.0000   1.0000   1.0000   1.0000
     1.0000   1.0000   1.0000   1.0000   1.0000   1.0000   1.0000   1.0000
     1.0000   1.0000   1.0000   1.0000   1.0000   1.0000   1.0000   1.0000
     1.0000   1.0000   1.0000   1.0000   1.0000   1.0000   1.0000   1.0000
     1.0000   1.0000   1.0000   1.0000   1.0000   1.0000   1.0000   1.0000
     1.0000   1.0000   1.0000   1.0000   1.0000   1.0000   1.0000   1.0000
     1.0000   1.0000   1.0000   1.0000   1.0000   1.0000   1.0000   1.0000
     1.0000   1.0000   1.0000   1.0000   1.0000   1.0000   1.0000   1.0000
     1.0000   1.0000   1.0000   1.0000   1.0000   1.0000   1.0000   1.0000
     1.0000   1.0000   1.0000   1.0000   1.0000   1.0000   1.0000   1.0000
     1.0000   1.0000   1.0000   1.0000   1.0000   1.0000   1.0000   1.0000
     1.0000   1.0000   0.0000   0.0000   0.0000   0.0000   0.0000   0.0000
     0.0000   0.0000   0.0000   0.0000   0.0000   0.0000   0.0000   0.0000
     0.0000   0.0000   0.0000   0.0000   0.0000   0.0000   0.0000   0.0000
     0.0000   0.0000   0.0000   0.0000   0.0000   0.0000   0.0000   0.0000
     0.0000   0.0000   0.0000   0.0000   0.0000

     the Fermi energy is     0.5080 ev

!    total energy              =   -5320.16302491 Ry
     estimated scf accuracy    <       0.00000031 Ry
     smearing contrib. (-TS)   =      -0.00090171 Ry
     internal energy E=F+TS    =   -5320.16212320 Ry

     The total energy is F=E-TS. E is the sum of the following terms:
     one-electron contribution =  -12132.72125579 Ry
     hartree contribution      =    6037.91284299 Ry
     xc contribution           =    -520.19194761 Ry
     ewald contribution        =    1294.83823720 Ry

     convergence has been achieved in  10 iterations

     negative rho (up, down):  5.783E-03 0.000E+00

     Forces acting on atoms (cartesian axes, Ry/au):

     atom    1 type  1   force =     0.00000000    0.00000000    0.02752603
     atom    2 type  1   force =    -0.00000813   -0.00000506   -0.02752525
     atom    3 type  1   force =     0.00000000   -0.00000653    0.02752532
     atom    4 type  1   force =    -0.00000596    0.00000000   -0.02752395
     atom    5 type  1   force =     0.00000000    0.00000653    0.02752532
     atom    6 type  1   force =    -0.00000813    0.00000506   -0.02752525
     atom    7 type  1   force =    -0.00000582    0.00000000    0.02752155
     atom    8 type  1   force =     0.00000000   -0.00000183   -0.02751856
     atom    9 type  1   force =    -0.00000419   -0.00000283    0.02752090
     atom   10 type  1   force =     0.00000000    0.00000000   -0.02751736
     atom   11 type  1   force =    -0.00000419    0.00000283    0.02752090
     atom   12 type  1   force =     0.00000000    0.00000183   -0.02751856
     atom   13 type  1   force =     0.00000582    0.00000000    0.02752155
     atom   14 type  1   force =     0.00000813   -0.00000506   -0.02752525
     atom   15 type  1   force =     0.00000419   -0.00000283    0.02752090
     atom   16 type  1   force =     0.00000596    0.00000000   -0.02752395
     atom   17 type  1   force =     0.00000419    0.00000283    0.02752090
     atom   18 type  1   force =     0.00000813    0.00000506   -0.02752525
     The non-local contrib.  to forces
     atom    1 type  1   force =     0.00000000    0.00000000   -0.31395171
     atom    2 type  1   force =    -0.00000638   -0.00000168    0.31392507
     atom    3 type  1   force =     0.00000000   -0.00000145   -0.31395153
     atom    4 type  1   force =    -0.00000640    0.00000000    0.31392521
     atom    5 type  1   force =     0.00000000    0.00000145   -0.31395153
     atom    6 type  1   force =    -0.00000638    0.00000168    0.31392507
     atom    7 type  1   force =    -0.00000666    0.00000000   -0.31394661
     atom    8 type  1   force =     0.00000000   -0.00000119    0.31392395
     atom    9 type  1   force =    -0.00000646   -0.00000102   -0.31394688
     atom   10 type  1   force =     0.00000000    0.00000000    0.31392438
     atom   11 type  1   force =    -0.00000646    0.00000102   -0.31394688
     atom   12 type  1   force =     0.00000000    0.00000119    0.31392395
     atom   13 type  1   force =     0.00000666    0.00000000   -0.31394661
     atom   14 type  1   force =     0.00000638   -0.00000168    0.31392507
     atom   15 type  1   force =     0.00000646   -0.00000102   -0.31394688
     atom   16 type  1   force =     0.00000640    0.00000000    0.31392521
     atom   17 type  1   force =     0.00000646    0.00000102   -0.31394688
     atom   18 type  1   force =     0.00000638    0.00000168    0.31392507
     The ionic contribution  to forces
     atom    1 type  1   force =     0.00009402   -0.00009267  -58.21168234
     atom    2 type  1   force =     0.00006246   -0.00009960   58.21165795
     atom    3 type  1   force =     0.00009402   -0.00001823  -58.21172911
     atom    4 type  1   force =     0.00006246    0.00001823   58.21165795
     atom    5 type  1   force =     0.00009402    0.00009960  -58.21172911
     atom    6 type  1   force =     0.00006246    0.00009267   58.21161119
     atom    7 type  1   force =     0.00001549   -0.00009267  -58.21161119
     atom    8 type  1   force =    -0.00001549   -0.00009960   58.21165795
     atom    9 type  1   force =     0.00001549   -0.00001823  -58.21165795
     atom   10 type  1   force =    -0.00001549    0.00001823   58.21165795
     atom   11 type  1   force =     0.00001549    0.00009960  -58.21165795
     atom   12 type  1   force =    -0.00001549    0.00009267   58.21161119
     atom   13 type  1   force =    -0.00006246   -0.00009267  -58.21161119
     atom   14 type  1   force =    -0.00009402   -0.00009960   58.21172911
     atom   15 type  1   force =    -0.00006246   -0.00001823  -58.21165795
     atom   16 type  1   force =    -0.00009402    0.00001823   58.21172911
     atom   17 type  1   force =    -0.00006246    0.00009960  -58.21165795
     atom   18 type  1   force =    -0.00009402    0.00009267   58.21168234
     The local contribution  to forces
     atom    1 type  1   force =     0.00000000   -0.00000000   58.55097375
     atom    2 type  1   force =    -0.00083550    0.00089554  -58.55127474
     atom    3 type  1   force =     0.00000000    0.00086696   58.55103190
     atom    4 type  1   force =    -0.00084559    0.00077315  -58.55131070
     atom    5 type  1   force =     0.00000000    0.00067935   58.55103190
     atom    6 type  1   force =    -0.00083550    0.00065077  -58.55127474
     atom    7 type  1   force =    -0.00080115   -0.00000000   58.55091450
     atom    8 type  1   force =    -0.00079841    0.00087971  -58.55126678
     atom    9 type  1   force =    -0.00080952    0.00084875   58.55096752
     atom   10 type  1   force =    -0.00079841    0.00077315  -58.55129724
     atom   11 type  1   force =    -0.00080952    0.00069756   58.55096752
     atom   12 type  1   force =    -0.00079841    0.00066660  -58.55126678
     atom   13 type  1   force =    -0.00079567   -0.00000000   58.55091450
     atom   14 type  1   force =    -0.00076132    0.00089554  -58.55127474
     atom   15 type  1   force =    -0.00078730    0.00084875   58.55096752
     atom   16 type  1   force =    -0.00075124    0.00077315  -58.55131070
     atom   17 type  1   force =    -0.00078730    0.00069756   58.55096752
     atom   18 type  1   force =    -0.00076132    0.00065077  -58.55127474
     The core correction contribution to forces
     atom    1 type  1   force =     0.00000000   -0.00000000    0.00174544
     atom    2 type  1   force =    -0.00000051    0.00000049   -0.00174410
     atom    3 type  1   force =     0.00000000    0.00000048    0.00174546
     atom    4 type  1   force =    -0.00000050    0.00000050   -0.00174410
     atom    5 type  1   force =     0.00000000    0.00000052    0.00174546
     atom    6 type  1   force =    -0.00000051    0.00000051   -0.00174410
     atom    7 type  1   force =    -0.00000050   -0.00000000    0.00174549
     atom    8 type  1   force =    -0.00000050    0.00000050   -0.00174410
     atom    9 type  1   force =    -0.00000050    0.00000049    0.00174550
     atom   10 type  1   force =    -0.00000050    0.00000050   -0.00174410
     atom   11 type  1   force =    -0.00000050    0.00000051    0.00174550
     atom   12 type  1   force =    -0.00000050    0.00000050   -0.00174410
     atom   13 type  1   force =    -0.00000049   -0.00000000    0.00174549
     atom   14 type  1   force =    -0.00000048    0.00000049   -0.00174410
     atom   15 type  1   force =    -0.00000050    0.00000049    0.00174550
     atom   16 type  1   force =    -0.00000049    0.00000050   -0.00174410
     atom   17 type  1   force =    -0.00000050    0.00000051    0.00174550
     atom   18 type  1   force =    -0.00000048    0.00000051   -0.00174410
     The Hubbard contrib.    to forces
     atom    1 type  1   force =     0.00000000    0.00000000    0.00000000
     atom    2 type  1   force =     0.00000000    0.00000000    0.00000000
     atom    3 type  1   force =     0.00000000    0.00000000    0.00000000
     atom    4 type  1   force =     0.00000000    0.00000000    0.00000000
     atom    5 type  1   force =     0.00000000    0.00000000    0.00000000
     atom    6 type  1   force =     0.00000000    0.00000000    0.00000000
     atom    7 type  1   force =     0.00000000    0.00000000    0.00000000
     atom    8 type  1   force =     0.00000000    0.00000000    0.00000000
     atom    9 type  1   force =     0.00000000    0.00000000    0.00000000
     atom   10 type  1   force =     0.00000000    0.00000000    0.00000000
     atom   11 type  1   force =     0.00000000    0.00000000    0.00000000
     atom   12 type  1   force =     0.00000000    0.00000000    0.00000000
     atom   13 type  1   force =     0.00000000    0.00000000    0.00000000
     atom   14 type  1   force =     0.00000000    0.00000000    0.00000000
     atom   15 type  1   force =     0.00000000    0.00000000    0.00000000
     atom   16 type  1   force =     0.00000000    0.00000000    0.00000000
     atom   17 type  1   force =     0.00000000    0.00000000    0.00000000
     atom   18 type  1   force =     0.00000000    0.00000000    0.00000000
     The SCF correction term to forces
     atom    1 type  1   force =     0.00000007   -0.00000006    0.00045544
     atom    2 type  1   force =    -0.00004324   -0.00002930   -0.00008708
     atom    3 type  1   force =     0.00000007   -0.00003959    0.00044315
     atom    4 type  1   force =    -0.00003098    0.00000034   -0.00007336
     atom    5 type  1   force =     0.00000007    0.00004030    0.00044315
     atom    6 type  1   force =    -0.00004325    0.00002995   -0.00008711
     atom    7 type  1   force =    -0.00003575   -0.00000006    0.00043392
     atom    8 type  1   force =    -0.00000036   -0.00001074   -0.00005163
     atom    9 type  1   force =    -0.00002596   -0.00001813    0.00042727
     atom   10 type  1   force =    -0.00000036    0.00000034   -0.00004380
     atom   11 type  1   force =    -0.00002596    0.00001884    0.00042727
     atom   12 type  1   force =    -0.00000036    0.00001139   -0.00005166
     atom   13 type  1   force =     0.00003502   -0.00000006    0.00043392
     atom   14 type  1   force =     0.00004253   -0.00002930   -0.00008703
     atom   15 type  1   force =     0.00002523   -0.00001813    0.00042727
     atom   16 type  1   force =     0.00003026    0.00000034   -0.00007331
     atom   17 type  1   force =     0.00002524    0.00001884    0.00042727
     atom   18 type  1   force =     0.00004253    0.00002995   -0.00008707

     Total force =     0.116768     Total SCF correction =     0.001333


     Computing stress (Cartesian axis) and pressure


     negative rho (up, down):  5.783E-03 0.000E+00
          total   stress  (Ry/bohr**3)                   (kbar)     P=      -37.12
  -0.00026255   0.00000000   0.00000000          -38.62        0.00        0.00
   0.00000000  -0.00027226   0.00000000            0.00      -40.05        0.00
   0.00000000   0.00000000  -0.00022220            0.00        0.00      -32.69

     kinetic stress (kbar)  12305.28      0.00      0.00
                                0.00  12263.94      0.00
                                0.00      0.00  12341.50

     local   stress (kbar)-137434.23      0.00      0.01
                                0.00-146582.56     -0.00
                                0.01     -0.00 138148.39

     nonloc. stress (kbar)   1432.04      0.00      0.00
                                0.00   1434.29      0.00
                                0.00      0.00   1408.74

     hartree stress (kbar)  74108.79      0.00      0.00
                                0.00  77973.94     -0.00
                                0.00     -0.00 -59764.07

     exc-cor stress (kbar)  -2214.70      0.00      0.00
                                0.00  -2211.69     -0.00
                                0.00     -0.00  -2218.85

     corecor stress (kbar)   -300.06     -0.00     -0.00
                               -0.00   -300.03      0.00
                               -0.00      0.00   -299.96

     ewald   stress (kbar)  52064.25     -0.00     -0.01
                               -0.00  57382.04      0.00
                               -0.01      0.00 -89648.44

     hubbard stress (kbar)      0.00      0.00      0.00
                                0.00      0.00      0.00
                                0.00      0.00      0.00

     DFT-D   stress (kbar)      0.00      0.00      0.00
                                0.00      0.00      0.00
                                0.00      0.00      0.00

     XDM     stress (kbar)      0.00      0.00      0.00
                                0.00      0.00      0.00
                                0.00      0.00      0.00

     dft-nl  stress (kbar)      0.00      0.00      0.00
                                0.00      0.00      0.00
                                0.00      0.00      0.00

     TS-vdW  stress (kbar)      0.00      0.00      0.00
                                0.00      0.00      0.00
                                0.00      0.00      0.00



     BFGS Geometry Optimization
     Energy error            =      0.0E+00
     Gradient error          =      2.8E-02

     number of scf cycles    =   1
     number of bfgs steps    =   0

     energy   new            =   -5320.1630249125 Ry

     new trust radius        =       0.0275260292 bohr
     new conv_thr            =       0.0000010000 Ry


ATOMIC_POSITIONS (angstrom)
Ag            0.0000000000        0.0000000000        0.0145661473
Ag            2.0802696989        1.4709733213        1.4564102654
Ag            0.0000000000        2.9419485467        0.0145657727
Ag            2.0802708454        4.4129280000        1.4564109528
Ag            0.0000000000        5.8839074533        0.0145657727
Ag            2.0802696989        7.3548826787        1.4564102654
Ag            4.1605449217        0.0000000000        0.0145637778
Ag            6.2408220000        1.4709750307        1.4564138056
Ag            4.1605457838        2.9419505029        0.0145634334
Ag            6.2408220000        4.4129280000        1.4564144394
Ag            4.1605457838        5.8839054971        0.0145634334
Ag            6.2408220000        7.3548809693        1.4564138056
Ag            8.3210990783        0.0000000000        0.0145637778
Ag           10.4013743011        1.4709733213        1.4564102654
Ag            8.3210982162        2.9419505029        0.0145634334
Ag           10.4013731546        4.4129280000        1.4564109528
Ag            8.3210982162        5.8839054971        0.0145634334
Ag           10.4013743011        7.3548826787        1.4564102654



     Writing output data file ./surface.save/
     NEW-OLD atomic charge density approx. for the potential

     negative rho (up, down):  5.803E-03 0.000E+00

     total cpu time spent up to now is       91.6 secs

     Self-consistent Calculation

     iteration #  1     ecut=    30.00 Ry     beta= 0.30
     Davidson diagonalization with overlap
     ethr =  1.00E-06,  avg # of iterations =  5.0

     Threshold (ethr) on eigenvalues was too large:
     Diagonalizing with lowered threshold

     Davidson diagonalization with overlap
     ethr =  9.20E-08,  avg # of iterations =  1.9

     negative rho (up, down):  5.834E-03 0.000E+00

     total cpu time spent up to now is      111.7 secs

     total energy              =   -5320.17636439 Ry
     estimated scf accuracy    <       0.00031531 Ry

     iteration #  2     ecut=    30.00 Ry     beta= 0.30
     Davidson diagonalization with overlap
     ethr =  9.22E-08,  avg # of iterations =  1.0

     negative rho (up, down):  5.882E-03 0.000E+00

     total cpu time spent up to now is      117.1 secs

     total energy              =   -5320.17636103 Ry
     estimated scf accuracy    <       0.00010865 Ry

     iteration #  3     ecut=    30.00 Ry     beta= 0.30
     Davidson diagonalization with overlap
     ethr =  3.18E-08,  avg # of iterations =  1.9

     negative rho (up, down):  5.889E-03 0.000E+00

     total cpu time spent up to now is      123.2 secs

     total energy              =   -5320.17636741 Ry
     estimated scf accuracy    <       0.00001016 Ry

     iteration #  4     ecut=    30.00 Ry     beta= 0.30
     Davidson diagonalization with overlap
     ethr =  2.97E-09,  avg # of iterations =  2.0

     negative rho (up, down):  5.885E-03 0.000E+00

     total cpu time spent up to now is      129.8 secs

     total energy              =   -5320.17636862 Ry
     estimated scf accuracy    <       0.00000427 Ry

     iteration #  5     ecut=    30.00 Ry     beta= 0.30
     Davidson diagonalization with overlap
     ethr =  1.25E-09,  avg # of iterations =  1.0

     negative rho (up, down):  5.872E-03 0.000E+00

     total cpu time spent up to now is      135.1 secs

     End of self-consistent calculation

          k = 0.0000 0.0000 0.0000 ( 26735 PWs)   bands (ev):

   -90.8441 -90.8417 -90.8417 -90.8384 -90.8384 -90.8372 -90.8372 -90.8372
   -90.8372 -90.8370 -90.8369 -90.8349 -90.8349 -90.8348 -90.8348 -90.8346
   -90.8336 -90.8336 -54.3577 -54.3577 -54.3576 -54.3576 -54.3569 -54.3569
   -54.3527 -54.3527 -54.3526 -54.3526 -54.3461 -54.3460 -54.3334 -54.3319
   -54.3319 -54.3231 -54.3231 -54.3155 -54.3126 -54.3126 -54.3095 -54.3095
   -54.3095 -54.3095 -54.3088 -54.3023 -54.3023 -54.3023 -54.3023 -54.3015
   -54.3015 -54.2985 -54.2985 -54.2902 -54.2892 -54.2891 -54.2885 -54.2885
   -54.2821 -54.2816 -54.2816 -54.2816 -54.2816 -54.2809 -54.2809 -54.2793
   -54.2793 -54.2779 -54.2779 -54.2778 -54.2778 -54.2701 -54.2700 -54.2678
    -4.5596  -4.4951  -4.4931  -4.4931  -4.3663  -4.3662  -4.0459  -4.0459
    -3.9785  -3.9785  -3.9769  -3.9769  -3.9548  -3.9548  -3.9547  -3.9547
    -3.9143  -3.9142  -3.8716  -3.8716  -3.8715  -3.8715  -3.7913  -3.7559
    -3.7559  -3.7559  -3.7559  -3.7238  -3.7238  -3.7118  -3.7118  -3.7118
    -3.7118  -3.6367  -3.3258  -3.3151  -3.3151  -3.3151  -3.3151  -3.2807
    -3.2807  -3.1856  -3.1856  -3.1720  -3.1720  -3.1401  -3.1401  -3.1255
    -2.9795  -2.9795  -2.9086  -2.9086  -2.9071  -2.9071  -2.9071  -2.9071
    -2.8938  -2.8938  -2.8937  -2.8937  -2.8203  -2.7593  -2.7527  -2.7527
    -2.7526  -2.7526  -2.6998  -2.6998  -2.6935  -2.6935  -2.5694  -2.5373
    -2.5373  -2.5373  -2.5373  -2.4829  -2.4569  -2.4569  -2.4568  -2.4568
    -2.4437  -2.4437  -2.4284  -2.4284  -2.3543  -2.3543  -2.3257  -2.3256
    -2.2497  -2.2496  -2.1687  -2.1687  -2.1497  -1.4959  -1.4959  -0.2970
    -0.2970  -0.2970  -0.2969   0.3181   0.7250   0.7250   1.6587   1.6588
     2.4468   2.4468   2.5712   2.5712   2.5713   2.5713   3.2409   3.6970
     3.6970   4.3351   4.3351   4.3351   4.3351   4.9408   5.0190   5.0190
     5.0506   5.2028   5.2028   5.2555   5.6044   5.6044   6.0054   6.0054
     6.0054   6.0054   6.2055   6.2056   6.5173

     occupation numbers 
     1.0000   1.0000   1.0000   1.0000   1.0000   1.0000   1.0000   1.0000
     1.0000   1.0000   1.0000   1.0000   1.0000   1.0000   1.0000   1.0000
     1.0000   1.0000   1.0000   1.0000   1.0000   1.0000   1.0000   1.0000
     1.0000   1.0000   1.0000   1.0000   1.0000   1.0000   1.0000   1.0000
     1.0000   1.0000   1.0000   1.0000   1.0000   1.0000   1.0000   1.0000
     1.0000   1.0000   1.0000   1.0000   1.0000   1.0000   1.0000   1.0000
     1.0000   1.0000   1.0000   1.0000   1.0000   1.0000   1.0000   1.0000
     1.0000   1.0000   1.0000   1.0000   1.0000   1.0000   1.0000   1.0000
     1.0000   1.0000   1.0000   1.0000   1.0000   1.0000   1.0000   1.0000
     1.0000   1.0000   1.0000   1.0000   1.0000   1.0000   1.0000   1.0000
     1.0000   1.0000   1.0000   1.0000   1.0000   1.0000   1.0000   1.0000
     1.0000   1.0000   1.0000   1.0000   1.0000   1.0000   1.0000   1.0000
     1.0000   1.0000   1.0000   1.0000   1.0000   1.0000   1.0000   1.0000
     1.0000   1.0000   1.0000   1.0000   1.0000   1.0000   1.0000   1.0000
     1.0000   1.0000   1.0000   1.0000   1.0000   1.0000   1.0000   1.0000
     1.0000   1.0000   1.0000   1.0000   1.0000   1.0000   1.0000   1.0000
     1.0000   1.0000   1.0000   1.0000   1.0000   1.0000   1.0000   1.0000
     1.0000   1.0000   1.0000   1.0000   1.0000   1.0000   1.0000   1.0000
     1.0000   1.0000   1.0000   1.0000   1.0000   1.0000   1.0000   1.0000
     1.0000   1.0000   1.0000   1.0000   1.0000   1.0000   1.0000   1.0000
     1.0000   1.0000   1.0000   1.0000   1.0000   1.0000   1.0000   1.0000
     1.0000   1.0000   1.0000   1.0000   0.0000   0.0000   0.0000   0.0000
     0.0000   0.0000   0.0000   0.0000   0.0000   0.0000   0.0000   0.0000
     0.0000   0.0000   0.0000   0.0000   0.0000   0.0000   0.0000   0.0000
     0.0000   0.0000   0.0000   0.0000   0.0000   0.0000   0.0000   0.0000
     0.0000   0.0000   0.0000   0.0000   0.0000

          k = 0.0000 0.3536 0.0000 ( 26681 PWs)   bands (ev):

   -90.8436 -90.8413 -90.8413 -90.8405 -90.8388 -90.8388 -90.8368 -90.8368
   -90.8366 -90.8358 -90.8358 -90.8355 -90.8354 -90.8347 -90.8346 -90.8345
   -90.8339 -90.8338 -54.3684 -54.3683 -54.3668 -54.3656 -54.3655 -54.3608
   -54.3420 -54.3419 -54.3413 -54.3362 -54.3362 -54.3318 -54.3313 -54.3312
   -54.3296 -54.3233 -54.3232 -54.3202 -54.3158 -54.3158 -54.3156 -54.3136
   -54.3067 -54.3067 -54.3049 -54.3049 -54.3034 -54.3022 -54.3022 -54.2996
   -54.2982 -54.2982 -54.2950 -54.2930 -54.2929 -54.2898 -54.2890 -54.2874
   -54.2864 -54.2861 -54.2843 -54.2843 -54.2827 -54.2827 -54.2801 -54.2801
   -54.2797 -54.2797 -54.2748 -54.2733 -54.2732 -54.2698 -54.2697 -54.2684
    -4.4575  -4.3846  -4.3845  -4.3421  -4.2363  -4.2362  -4.1096  -4.1087
    -4.0994  -4.0708  -4.0708  -4.0458  -4.0237  -4.0237  -4.0081  -3.8614
    -3.8614  -3.8443  -3.8443  -3.8326  -3.8032  -3.8031  -3.7931  -3.7809
    -3.7797  -3.7797  -3.7711  -3.7014  -3.7014  -3.6963  -3.6963  -3.6542
    -3.5597  -3.5597  -3.5591  -3.3967  -3.3967  -3.3223  -3.2880  -3.2880
    -3.2673  -3.2199  -3.2199  -3.1972  -3.1972  -3.1462  -3.1462  -3.1419
    -3.1419  -3.1279  -3.1279  -3.0378  -3.0378  -2.9985  -2.9425  -2.9329
    -2.8693  -2.8500  -2.8500  -2.8071  -2.8071  -2.7489  -2.7489  -2.7032
    -2.7032  -2.7032  -2.6945  -2.6944  -2.6922  -2.6922  -2.6681  -2.6572
    -2.6175  -2.5380  -2.5380  -2.5226  -2.5226  -2.4808  -2.4497  -2.4178
    -2.4174  -2.4075  -2.4026  -2.3616  -2.3615  -2.3526  -2.3476  -2.2587
    -2.2587  -2.2259  -2.2259  -2.2045  -1.9952  -1.9952  -1.1118  -1.1118
    -0.1140   0.4693   0.8535   0.8535   0.9106   0.9106   1.5639   1.7843
     1.7843   1.8771   1.8771   3.1665   3.3234   3.3235   3.3669   3.3669
     3.3737   3.8686   3.8686   3.9477   4.3835   4.7484   4.7484   5.0753
     5.0907   5.0907   5.1423   5.1423   5.2775   5.3728   5.9098   5.9098
     5.9297   6.0963   6.1234   6.1234   6.3050

     occupation numbers 
     1.0000   1.0000   1.0000   1.0000   1.0000   1.0000   1.0000   1.0000
     1.0000   1.0000   1.0000   1.0000   1.0000   1.0000   1.0000   1.0000
     1.0000   1.0000   1.0000   1.0000   1.0000   1.0000   1.0000   1.0000
     1.0000   1.0000   1.0000   1.0000   1.0000   1.0000   1.0000   1.0000
     1.0000   1.0000   1.0000   1.0000   1.0000   1.0000   1.0000   1.0000
     1.0000   1.0000   1.0000   1.0000   1.0000   1.0000   1.0000   1.0000
     1.0000   1.0000   1.0000   1.0000   1.0000   1.0000   1.0000   1.0000
     1.0000   1.0000   1.0000   1.0000   1.0000   1.0000   1.0000   1.0000
     1.0000   1.0000   1.0000   1.0000   1.0000   1.0000   1.0000   1.0000
     1.0000   1.0000   1.0000   1.0000   1.0000   1.0000   1.0000   1.0000
     1.0000   1.0000   1.0000   1.0000   1.0000   1.0000   1.0000   1.0000
     1.0000   1.0000   1.0000   1.0000   1.0000   1.0000   1.0000   1.0000
     1.0000   1.0000   1.0000   1.0000   1.0000   1.0000   1.0000   1.0000
     1.0000   1.0000   1.0000   1.0000   1.0000   1.0000   1.0000   1.0000
     1.0000   1.0000   1.0000   1.0000   1.0000   1.0000   1.0000   1.0000
     1.0000   1.0000   1.0000   1.0000   1.0000   1.0000   1.0000   1.0000
     1.0000   1.0000   1.0000   1.0000   1.0000   1.0000   1.0000   1.0000
     1.0000   1.0000   1.0000   1.0000   1.0000   1.0000   1.0000   1.0000
     1.0000   1.0000   1.0000   1.0000   1.0000   1.0000   1.0000   1.0000
     1.0000   1.0000   1.0000   1.0000   1.0000   1.0000   1.0000   1.0000
     1.0000   1.0000   1.0000   1.0000   1.0000   1.0000   1.0000   1.0000
     1.0000   0.9790   0.0000   0.0000   0.0000   0.0000   0.0000   0.0000
     0.0000   0.0000   0.0000   0.0000   0.0000   0.0000   0.0000   0.0000
     0.0000   0.0000   0.0000   0.0000   0.0000   0.0000   0.0000   0.0000
     0.0000   0.0000   0.0000   0.0000   0.0000   0.0000   0.0000   0.0000
     0.0000   0.0000   0.0000   0.0000   0.0000

          k = 0.0000-0.7071 0.0000 ( 26726 PWs)   bands (ev):

   -90.8424 -90.8423 -90.8403 -90.8403 -90.8402 -90.8402 -90.8363 -90.8362
   -90.8362 -90.8361 -90.8354 -90.8351 -90.8349 -90.8349 -90.8348 -90.8345
   -90.8342 -90.8341 -54.3717 -54.3715 -54.3713 -54.3711 -54.3685 -54.3683
   -54.3312 -54.3312 -54.3312 -54.3312 -54.3273 -54.3272 -54.3264 -54.3264
   -54.3253 -54.3253 -54.3253 -54.3253 -54.3184 -54.3183 -54.3164 -54.3163
   -54.3163 -54.3163 -54.3017 -54.3017 -54.3016 -54.3016 -54.2972 -54.2969
   -54.2969 -54.2966 -54.2950 -54.2950 -54.2949 -54.2947 -54.2923 -54.2921
   -54.2883 -54.2882 -54.2866 -54.2864 -54.2863 -54.2861 -54.2793 -54.2793
   -54.2793 -54.2793 -54.2714 -54.2713 -54.2705 -54.2705 -54.2705 -54.2704
    -4.1954  -4.1953  -4.1507  -4.1506  -4.1159  -4.1158  -4.0972  -4.0971
    -4.0970  -4.0968  -4.0939  -4.0939  -4.0938  -4.0938  -3.9593  -3.9592
    -3.9162  -3.9162  -3.9161  -3.9161  -3.8989  -3.8988  -3.8987  -3.8986
    -3.7481  -3.7480  -3.7168  -3.7168  -3.6574  -3.6574  -3.6573  -3.6573
    -3.5197  -3.5197  -3.4245  -3.4245  -3.4245  -3.4245  -3.2854  -3.2854
    -3.2837  -3.2837  -3.2836  -3.2836  -3.2732  -3.2732  -3.2731  -3.2731
    -3.1589  -3.1589  -3.1588  -3.1588  -2.9813  -2.9812  -2.9811  -2.9810
    -2.9637  -2.9637  -2.8001  -2.7999  -2.7548  -2.7548  -2.7547  -2.7547
    -2.7178  -2.7178  -2.7178  -2.7178  -2.6563  -2.6563  -2.6563  -2.6563
    -2.6310  -2.6310  -2.5123  -2.5123  -2.4644  -2.4643  -2.4303  -2.4303
    -2.4303  -2.4303  -2.4223  -2.4223  -2.3765  -2.3764  -2.3243  -2.3242
    -2.1987  -2.1985  -2.1984  -2.1982  -1.6286  -1.6286  -1.6286  -1.6285
     0.8976   0.8977   1.2138   1.2138   1.2139   1.2139   1.5382   1.5382
     2.4055   2.4055   2.4056   2.4057   2.4697   2.4697   2.4697   2.4697
     3.7620   3.7620   4.3543   4.3543   4.3543   4.3543   5.0154   5.0157
     5.4294   5.4295   5.4296   5.4298   5.4695   5.4696   5.5116   5.5116
     5.5116   5.5116   5.7235   5.7235   5.9158

     occupation numbers 
     1.0000   1.0000   1.0000   1.0000   1.0000   1.0000   1.0000   1.0000
     1.0000   1.0000   1.0000   1.0000   1.0000   1.0000   1.0000   1.0000
     1.0000   1.0000   1.0000   1.0000   1.0000   1.0000   1.0000   1.0000
     1.0000   1.0000   1.0000   1.0000   1.0000   1.0000   1.0000   1.0000
     1.0000   1.0000   1.0000   1.0000   1.0000   1.0000   1.0000   1.0000
     1.0000   1.0000   1.0000   1.0000   1.0000   1.0000   1.0000   1.0000
     1.0000   1.0000   1.0000   1.0000   1.0000   1.0000   1.0000   1.0000
     1.0000   1.0000   1.0000   1.0000   1.0000   1.0000   1.0000   1.0000
     1.0000   1.0000   1.0000   1.0000   1.0000   1.0000   1.0000   1.0000
     1.0000   1.0000   1.0000   1.0000   1.0000   1.0000   1.0000   1.0000
     1.0000   1.0000   1.0000   1.0000   1.0000   1.0000   1.0000   1.0000
     1.0000   1.0000   1.0000   1.0000   1.0000   1.0000   1.0000   1.0000
     1.0000   1.0000   1.0000   1.0000   1.0000   1.0000   1.0000   1.0000
     1.0000   1.0000   1.0000   1.0000   1.0000   1.0000   1.0000   1.0000
     1.0000   1.0000   1.0000   1.0000   1.0000   1.0000   1.0000   1.0000
     1.0000   1.0000   1.0000   1.0000   1.0000   1.0000   1.0000   1.0000
     1.0000   1.0000   1.0000   1.0000   1.0000   1.0000   1.0000   1.0000
     1.0000   1.0000   1.0000   1.0000   1.0000   1.0000   1.0000   1.0000
     1.0000   1.0000   1.0000   1.0000   1.0000   1.0000   1.0000   1.0000
     1.0000   1.0000   1.0000   1.0000   1.0000   1.0000   1.0000   1.0000
     1.0000   1.0000   1.0000   1.0000   1.0000   1.0000   1.0000   1.0000
     0.0000   0.0000   0.0000   0.0000   0.0000   0.0000   0.0000   0.0000
     0.0000   0.0000   0.0000   0.0000   0.0000   0.0000   0.0000   0.0000
[...]
     1.0000   1.0000   1.0000   1.0000   1.0000   1.0000   1.0000   1.0000
     1.0000   1.0000   1.0000   1.0000   1.0000   1.0000   1.0000   1.0000
     1.0000   1.0000   1.0000   1.0000   1.0000   1.0000   1.0000   1.0000
     1.0000   1.0000   1.0000   1.0000   1.0000   1.0000   1.0000   1.0000
     1.0000   1.0000   1.0000   1.0000   1.0000   1.0000   1.0000   1.0000
     1.0000   1.0000   1.0000   1.0000   1.0000   1.0000   1.0000   1.0000
     1.0000   1.0000   1.0000   1.0000   1.0000   1.0000   1.0000   1.0000
     1.0000   1.0000   1.0000   1.0000   1.0000   1.0000   1.0000   1.0000
     1.0000   1.0000   1.0000   1.0000   1.0000   1.0000   1.0000   1.0000
     1.0000   1.0000   1.0000   1.0000   1.0000   1.0000   1.0000   1.0000
     1.0000   1.0000   1.0000   1.0000   1.0000   1.0000   1.0000   1.0000
     1.0000   1.0000   1.0000   1.0000   1.0000   1.0000   1.0000   1.0000
     1.0000   1.0000   1.0000   1.0000   1.0000   1.0000   1.0000   1.0000
     1.0000   1.0000   0.0000   0.0000   0.0000   0.0000   0.0000   0.0000
     0.0000   0.0000   0.0000   0.0000   0.0000   0.0000   0.0000   0.0000
     0.0000   0.0000   0.0000   0.0000   0.0000   0.0000   0.0000   0.0000
     0.0000   0.0000   0.0000   0.0000   0.0000   0.0000   0.0000   0.0000
     0.0000   0.0000   0.0000   0.0000   0.0000

     the Fermi energy is     0.7180 ev

!    total energy              =   -5320.28503193 Ry
     estimated scf accuracy    <          2.5E-09 Ry
     smearing contrib. (-TS)   =      -0.00024618 Ry
     internal energy E=F+TS    =   -5320.28478574 Ry

     The total energy is F=E-TS. E is the sum of the following terms:
     one-electron contribution =  -13085.57723435 Ry
     hartree contribution      =    6512.38324885 Ry
     xc contribution           =    -520.90801454 Ry
     ewald contribution        =    1773.81721430 Ry

     convergence has been achieved in   6 iterations

     negative rho (up, down):  7.838E-03 0.000E+00

     Forces acting on atoms (cartesian axes, Ry/au):

     atom    1 type  1   force =     0.00000000    0.00000000   -0.00016011
     atom    2 type  1   force =     0.00004908    0.00000049    0.00014002
     atom    3 type  1   force =     0.00000000    0.00000103   -0.00015977
     atom    4 type  1   force =     0.00004804    0.00000000    0.00013974
     atom    5 type  1   force =     0.00000000   -0.00000103   -0.00015977
     atom    6 type  1   force =     0.00004908   -0.00000049    0.00014002
     atom    7 type  1   force =     0.00004180    0.00000000   -0.00010366
     atom    8 type  1   force =     0.00000000   -0.00000040    0.00008738
     atom    9 type  1   force =     0.00004119   -0.00000002   -0.00010368
     atom   10 type  1   force =     0.00000000    0.00000000    0.00008737
     atom   11 type  1   force =     0.00004119    0.00000002   -0.00010368
     atom   12 type  1   force =     0.00000000    0.00000040    0.00008738
     atom   13 type  1   force =    -0.00004180    0.00000000   -0.00010366
     atom   14 type  1   force =    -0.00004908    0.00000049    0.00014002
     atom   15 type  1   force =    -0.00004119   -0.00000002   -0.00010368
     atom   16 type  1   force =    -0.00004804    0.00000000    0.00013974
     atom   17 type  1   force =    -0.00004119    0.00000002   -0.00010368
     atom   18 type  1   force =    -0.00004908   -0.00000049    0.00014002
     The non-local contrib.  to forces
     atom    1 type  1   force =     0.00000000    0.00000000   -0.29044392
     atom    2 type  1   force =    -0.00001275    0.00000076    0.29041259
     atom    3 type  1   force =     0.00000000    0.00000182   -0.29044273
     atom    4 type  1   force =    -0.00001382    0.00000000    0.29041192
     atom    5 type  1   force =     0.00000000   -0.00000182   -0.29044273
     atom    6 type  1   force =    -0.00001275   -0.00000076    0.29041259
     atom    7 type  1   force =    -0.00001330    0.00000000   -0.29033056
     atom    8 type  1   force =     0.00000000   -0.00000118    0.29031013
     atom    9 type  1   force =    -0.00001397   -0.00000013   -0.29032999
     atom   10 type  1   force =     0.00000000    0.00000000    0.29031000
     atom   11 type  1   force =    -0.00001397    0.00000013   -0.29032999
     atom   12 type  1   force =     0.00000000    0.00000118    0.29031013
     atom   13 type  1   force =     0.00001330    0.00000000   -0.29033056
     atom   14 type  1   force =     0.00001275    0.00000076    0.29041259
     atom   15 type  1   force =     0.00001397   -0.00000013   -0.29032999
     atom   16 type  1   force =     0.00001382    0.00000000    0.29041192
     atom   17 type  1   force =     0.00001397    0.00000013   -0.29032999
     atom   18 type  1   force =     0.00001275   -0.00000076    0.29041259
     The ionic contribution  to forces
     atom    1 type  1   force =     0.00012490   -0.00010216  -46.08031932
     atom    2 type  1   force =     0.01788770    0.00019205   46.07075782
     atom    3 type  1   force =     0.00012490    0.00037666  -46.08001788
     atom    4 type  1   force =     0.01767298    0.00002108   46.07059329
     atom    5 type  1   force =     0.00012490   -0.00029528  -46.08001788
     atom    6 type  1   force =     0.01788769   -0.00019236   46.07071297
     atom    7 type  1   force =     0.01673534   -0.00010214  -46.05593316
     atom    8 type  1   force =    -0.00001670   -0.00008651   46.05036230
     atom    9 type  1   force =     0.01658279    0.00007144  -46.05579921
     atom   10 type  1   force =    -0.00001670    0.00002108   46.05040913
     atom   11 type  1   force =     0.01658279    0.00000993  -46.05579921
     atom   12 type  1   force =    -0.00001670    0.00008619   46.05031747
     atom   13 type  1   force =    -0.01678231   -0.00010214  -46.05593316
     atom   14 type  1   force =    -0.01794893    0.00019205   46.07082488
     atom   15 type  1   force =    -0.01662976    0.00007144  -46.05579921
     atom   16 type  1   force =    -0.01773420    0.00002108   46.07066035
     atom   17 type  1   force =    -0.01662976    0.00000993  -46.05579921
     atom   18 type  1   force =    -0.01794891   -0.00019236   46.07078003
     The local contribution  to forces
     atom    1 type  1   force =     0.00000000   -0.00000000   46.36914496
     atom    2 type  1   force =    -0.01865982    0.00057115  -46.35954227
     atom    3 type  1   force =     0.00000000    0.00042695   46.36884274
     atom    4 type  1   force =    -0.01844532    0.00076340  -46.35939981
     atom    5 type  1   force =     0.00000000    0.00109984   46.36884274
     atom    6 type  1   force =    -0.01865982    0.00095565  -46.35954227
     atom    7 type  1   force =    -0.01751064   -0.00000000   46.34468517
     atom    8 type  1   force =    -0.00076806    0.00085040  -46.33905006
     atom    9 type  1   force =    -0.01735826    0.00073274   46.34455061
     atom   10 type  1   force =    -0.00076806    0.00076341  -46.33911918
     atom   11 type  1   force =    -0.01735826    0.00079408   46.34455061
     atom   12 type  1   force =    -0.00076806    0.00067642  -46.33905006
     atom   13 type  1   force =     0.01597452   -0.00000000   46.34468518
     atom   14 type  1   force =     0.01712368    0.00057115  -46.35954229
     atom   15 type  1   force =     0.01582213    0.00073274   46.34455063
     atom   16 type  1   force =     0.01690918    0.00076340  -46.35939983
     atom   17 type  1   force =     0.01582213    0.00079408   46.34455063
     atom   18 type  1   force =     0.01712368    0.00095565  -46.35954229
     The core correction contribution to forces
     atom    1 type  1   force =     0.00000000   -0.00000000    0.00151625
     atom    2 type  1   force =    -0.00000037    0.00000050   -0.00152199
     atom    3 type  1   force =     0.00000000    0.00000050    0.00151623
     atom    4 type  1   force =    -0.00000036    0.00000051   -0.00152198
     atom    5 type  1   force =     0.00000000    0.00000052    0.00151623
     atom    6 type  1   force =    -0.00000037    0.00000051   -0.00152199
     atom    7 type  1   force =    -0.00000045   -0.00000000    0.00151549
     atom    8 type  1   force =    -0.00000051    0.00000051   -0.00152129
     atom    9 type  1   force =    -0.00000044    0.00000051    0.00151548
     atom   10 type  1   force =    -0.00000051    0.00000051   -0.00152129
     atom   11 type  1   force =    -0.00000044    0.00000051    0.00151548
     atom   12 type  1   force =    -0.00000051    0.00000050   -0.00152129
     atom   13 type  1   force =    -0.00000057   -0.00000000    0.00151549
     atom   14 type  1   force =    -0.00000065    0.00000050   -0.00152199
     atom   15 type  1   force =    -0.00000057    0.00000051    0.00151548
     atom   16 type  1   force =    -0.00000065    0.00000051   -0.00152198
     atom   17 type  1   force =    -0.00000057    0.00000051    0.00151548
     atom   18 type  1   force =    -0.00000065    0.00000051   -0.00152199
     The Hubbard contrib.    to forces
     atom    1 type  1   force =     0.00000000    0.00000000    0.00000000
     atom    2 type  1   force =     0.00000000    0.00000000    0.00000000
     atom    3 type  1   force =     0.00000000    0.00000000    0.00000000
     atom    4 type  1   force =     0.00000000    0.00000000    0.00000000
     atom    5 type  1   force =     0.00000000    0.00000000    0.00000000
     atom    6 type  1   force =     0.00000000    0.00000000    0.00000000
     atom    7 type  1   force =     0.00000000    0.00000000    0.00000000
     atom    8 type  1   force =     0.00000000    0.00000000    0.00000000
     atom    9 type  1   force =     0.00000000    0.00000000    0.00000000
     atom   10 type  1   force =     0.00000000    0.00000000    0.00000000
     atom   11 type  1   force =     0.00000000    0.00000000    0.00000000
     atom   12 type  1   force =     0.00000000    0.00000000    0.00000000
     atom   13 type  1   force =     0.00000000    0.00000000    0.00000000
     atom   14 type  1   force =     0.00000000    0.00000000    0.00000000
     atom   15 type  1   force =     0.00000000    0.00000000    0.00000000
     atom   16 type  1   force =     0.00000000    0.00000000    0.00000000
     atom   17 type  1   force =     0.00000000    0.00000000    0.00000000
     atom   18 type  1   force =     0.00000000    0.00000000    0.00000000
     The SCF correction term to forces
     atom    1 type  1   force =    -0.00000000    0.00000000   -0.00005838
     atom    2 type  1   force =     0.00003512   -0.00000021    0.00002247
     atom    3 type  1   force =    -0.00000000   -0.00000030   -0.00005844
     atom    4 type  1   force =     0.00003537    0.00000000    0.00002250
     atom    5 type  1   force =    -0.00000000    0.00000031   -0.00005844
     atom    6 type  1   force =     0.00003512    0.00000021    0.00002247
     atom    7 type  1   force =     0.00003880    0.00000000   -0.00004091
     atom    8 type  1   force =    -0.00000000    0.00000014    0.00000841
     atom    9 type  1   force =     0.00003901    0.00000002   -0.00004090
     atom   10 type  1   force =    -0.00000000    0.00000000    0.00000840
     atom   11 type  1   force =     0.00003901   -0.00000002   -0.00004091
     atom   12 type  1   force =    -0.00000000   -0.00000014    0.00000841
     atom   13 type  1   force =    -0.00003880    0.00000000   -0.00004091
     atom   14 type  1   force =    -0.00003513   -0.00000021    0.00002247
     atom   15 type  1   force =    -0.00003902    0.00000002   -0.00004090
     atom   16 type  1   force =    -0.00003537    0.00000000    0.00002250
     atom   17 type  1   force =    -0.00003902   -0.00000002   -0.00004090
     atom   18 type  1   force =    -0.00003513    0.00000021    0.00002247

     Total force =     0.000553     Total SCF correction =     0.000200
     SCF correction compared to forces is large: reduce conv_thr to get better values


     Computing stress (Cartesian axis) and pressure


     negative rho (up, down):  7.838E-03 0.000E+00
          total   stress  (Ry/bohr**3)                   (kbar)     P=      -16.92
  -0.00004942   0.00000000   0.00000000           -7.27        0.00        0.00
   0.00000000  -0.00014273   0.00000000            0.00      -21.00        0.00
   0.00000000   0.00000000  -0.00015286            0.00        0.00      -22.49

     kinetic stress (kbar)  12289.32      0.00      0.00
                                0.00  12279.78      0.00
                                0.00      0.00  12392.57

     local   stress (kbar)-160469.65      0.00      0.01
                                0.00-163271.05     -0.00
                                0.01     -0.00 163290.01

     nonloc. stress (kbar)   1443.76      0.00      0.00
                                0.00   1446.00      0.00
                                0.00      0.00   1407.35

     hartree stress (kbar)  84790.28      0.00     -0.00
                                0.00  86045.78      0.00
                               -0.00      0.00 -71262.83

     exc-cor stress (kbar)  -2215.02      0.00      0.00
                                0.00  -2214.38     -0.00
                                0.00     -0.00  -2224.06

     corecor stress (kbar)   -300.05     -0.00     -0.00
                               -0.00   -300.03      0.00
                               -0.00      0.00   -299.90

     ewald   stress (kbar)  64454.09     -0.00     -0.01
                               -0.00  65992.90      0.00
                               -0.01      0.00-103325.62

     hubbard stress (kbar)      0.00      0.00      0.00
                                0.00      0.00      0.00
                                0.00      0.00      0.00

     DFT-D   stress (kbar)      0.00      0.00      0.00
                                0.00      0.00      0.00
                                0.00      0.00      0.00

     XDM     stress (kbar)      0.00      0.00      0.00
                                0.00      0.00      0.00
                                0.00      0.00      0.00

     dft-nl  stress (kbar)      0.00      0.00      0.00
                                0.00      0.00      0.00
                                0.00      0.00      0.00

     TS-vdW  stress (kbar)      0.00      0.00      0.00
                                0.00      0.00      0.00
                                0.00      0.00      0.00


     Energy error            =      4.2E-06
     Gradient error          =      1.6E-04

     bfgs converged in   9 scf cycles and   8 bfgs steps
     (criteria: energy <  1.0E-04 Ry, force <  1.0E-03 Ry/Bohr)

     End of BFGS Geometry Optimization

     Final energy   =   -5320.2850319256 Ry

     File ./surface.bfgs deleted, as requested
Begin final coordinates

ATOMIC_POSITIONS (angstrom)
Ag            0.0000000000        0.0000000000        0.2654013875
Ag            2.0799739157        1.4709718797        1.2055008726
Ag            0.0000000000        2.9419471251        0.2654039927
Ag            2.0799754712        4.4129280000        1.2055002440
Ag            0.0000000000        5.8839088749        0.2654039927
Ag            2.0799739157        7.3548841203        1.2055008726
Ag            4.1602751590        0.0000000000        0.2655557154
Ag            6.2408220000        1.4709758370        1.2054093569
Ag            4.1602755479        2.9419509825        0.2655574715
Ag            6.2408220000        4.4129280000        1.2054106183
Ag            4.1602755479        5.8839050175        0.2655574715
Ag            6.2408220000        7.3548801630        1.2054093569
Ag            8.3213688410        0.0000000000        0.2655557154
Ag           10.4016700843        1.4709718797        1.2055008726
Ag            8.3213684521        2.9419509825        0.2655574715
Ag           10.4016685288        4.4129280000        1.2055002440
Ag            8.3213684521        5.8839050175        0.2655574715
Ag           10.4016700843        7.3548841203        1.2055008726
End final coordinates



     Writing output data file ./surface.save/

     init_run     :      2.91s CPU      3.05s WALL (       1 calls)
     electrons    :    479.44s CPU    492.11s WALL (       9 calls)
     update_pot   :      3.40s CPU      3.43s WALL (       8 calls)
     forces       :     13.74s CPU     14.34s WALL (       9 calls)
     stress       :     62.47s CPU     63.56s WALL (       9 calls)

     Called by init_run:
     wfcinit      :      2.10s CPU      2.14s WALL (       1 calls)
     wfcinit:atom :      0.03s CPU      0.03s WALL (       9 calls)
     wfcinit:wfcr :      1.92s CPU      1.96s WALL (       9 calls)
     potinit      :      0.18s CPU      0.18s WALL (       1 calls)
     hinit0       :      0.25s CPU      0.27s WALL (       1 calls)

     Called by electrons:
     c_bands      :    414.67s CPU    418.94s WALL (      65 calls)
     sum_band     :     53.01s CPU     57.58s WALL (      65 calls)
     v_of_rho     :      4.16s CPU      4.26s WALL (      71 calls)
     v_h          :      0.32s CPU      0.32s WALL (      71 calls)
     v_xc         :      4.80s CPU      4.93s WALL (      89 calls)
     newd         :      8.10s CPU     11.44s WALL (      71 calls)
     mix_rho      :      0.39s CPU      0.40s WALL (      65 calls)

     Called by c_bands:
     init_us_2    :      4.03s CPU      4.09s WALL (    1341 calls)
     cegterg      :    404.96s CPU    408.99s WALL (     585 calls)

     Called by sum_band:
     sum_band:wei :      0.04s CPU      0.04s WALL (      65 calls)
     sum_band:loo :     42.76s CPU     43.36s WALL (      65 calls)
     sum_band:buf :      2.14s CPU      2.21s WALL (     585 calls)
     sum_band:ini :      1.85s CPU      1.87s WALL (     585 calls)
     sum_band:cal :     11.97s CPU     12.05s WALL (     585 calls)
     sum_band:bec :      0.28s CPU      0.29s WALL (     585 calls)
     addusdens    :      9.47s CPU     13.42s WALL (      65 calls)
     addusd:skk   :      0.37s CPU      0.38s WALL (      65 calls)
     addusd:dgemm :      4.92s CPU      8.81s WALL (      65 calls)
     addusd:qvan2 :      3.28s CPU      3.31s WALL (      65 calls)

     Called by *egterg:
     cdiaghg      :     49.62s CPU     49.93s WALL (    2063 calls)
     cegterg:over :     36.83s CPU     37.10s WALL (    1577 calls)
     cegterg:upda :     26.11s CPU     26.31s WALL (    1577 calls)
     cegterg:last :     63.65s CPU     64.12s WALL (    1247 calls)
     cdiaghg:chol :      2.37s CPU      2.39s WALL (    2063 calls)
     cdiaghg:inve :      2.59s CPU      2.61s WALL (    2063 calls)
     cdiaghg:para :      7.01s CPU      7.06s WALL (    4126 calls)
     h_psi        :    192.69s CPU    195.20s WALL (    2171 calls)
     s_psi        :     20.70s CPU     20.83s WALL (    2171 calls)
     g_psi        :      0.87s CPU      0.89s WALL (    1577 calls)

     Called by h_psi:
     h_psi:calbec :     31.84s CPU     32.06s WALL (    2171 calls)
     vloc_psi     :    136.39s CPU    138.48s WALL (    2171 calls)
     add_vuspsi   :     21.20s CPU     21.35s WALL (    2171 calls)

     General routines
     calbec       :     53.71s CPU     54.08s WALL (    3161 calls)
     fft          :      2.51s CPU      2.55s WALL (    1141 calls)
     ffts         :      0.08s CPU      0.08s WALL (     136 calls)
     fftw         :    149.52s CPU    151.88s WALL (  728715 calls)
     interpolate  :      0.24s CPU      0.24s WALL (      71 calls)

     Parallel routines
     fft_scatt_xy :     10.95s CPU     11.08s WALL (  729992 calls)
     fft_scatt_yz :     56.02s CPU     56.98s WALL (  729992 calls)

     PWSCF        :   9m23.83s CPU   9m41.82s WALL


   This run was terminated on:  18: 0:17   9Dec2021            

=------------------------------------------------------------------------------=
   JOB DONE.
=------------------------------------------------------------------------------=
