
     Program PWSCF v.6.7MaX starts on 10Dec2021 at  3:51:42 

     This program is part of the open-source Quantum ESPRESSO suite
     for quantum simulation of materials; please cite
         "P. Giannozzi et al., J. Phys.:Condens. Matter 21 395502 (2009);
         "P. Giannozzi et al., J. Phys.:Condens. Matter 29 465901 (2017);
          URL http://www.quantum-espresso.org", 
     in publications or presentations arising from this work. More details at
     http://www.quantum-espresso.org/quote

     Parallel version (MPI), running on    16 processors

     MPI processes distributed on     1 nodes
     R & G space division:  proc/nbgrp/npool/nimage =      16
     Reading input from pt_surface.110.qe.7656382.1_1_3.in

     Current dimensions of program PWSCF are:
     Max number of different atomic species (ntypx) = 10
     Max number of k-points (npk) =  40000
     Max angular momentum in pseudopotentials (lmaxx) =  3

     Subspace diagonalization in iterative solution of the eigenvalue problem:
     one sub-group per band group will be used
     scalapack distributed-memory algorithm (size of sub-group:  4*  4 procs)


     Parallelization info
     --------------------
     sticks:   dense  smooth     PW     G-vecs:    dense   smooth      PW
     Min          59      24      7                 7631     1924     345
     Max          60      25      8                 7654     1934     358
     Sum         953     385    125               122237    30857    5625



     bravais-lattice index     =            8
     lattice parameter (alat)  =       7.5150  a.u.
     unit-cell volume          =    1391.2625 (a.u.)^3
     number of atoms/cell      =            6
     number of atomic types    =            1
     number of electrons       =        96.00
     number of Kohn-Sham states=           58
     kinetic-energy cutoff     =      30.0000  Ry
     charge density cutoff     =     300.0000  Ry
     scf convergence threshold =      1.0E-06
     mixing beta               =       0.3000
     number of iterations used =            8  plain     mixing
     energy convergence thresh.=      1.0E-04
     force convergence thresh. =      1.0E-03
     Exchange-correlation=  SLA  PW   PBX  PBC
                           (   1   4   3   4   0   0   0)
     nstep                     =           50


     celldm(1)=   7.515006  celldm(2)=   0.707107  celldm(3)=   4.635923
     celldm(4)=   0.000000  celldm(5)=   0.000000  celldm(6)=   0.000000

     crystal axes: (cart. coord. in units of alat)
               a(1) = (   1.000000   0.000000   0.000000 )  
               a(2) = (   0.000000   0.707107   0.000000 )  
               a(3) = (   0.000000   0.000000   4.635923 )  

     reciprocal axes: (cart. coord. in units 2 pi/alat)
               b(1) = (  1.000000  0.000000  0.000000 )  
               b(2) = (  0.000000  1.414214  0.000000 )  
               b(3) = (  0.000000  0.000000  0.215707 )  


     PseudoPot. # 1 for Pt read from file:
     /expanse/lustre/projects/csd622/tpascal/nano110/qe/pseudo/pt_pbe_v1.4.uspp.F.UPF
     MD5 check sum: f09d6de1a584b5a045c4fc126da2d0c4
     Pseudo is Ultrasoft + core correction, Zval = 16.0
     Generated by new atomic code, or converted to UPF format
     Using radial grid of  985 points,  6 beta functions with: 
                l(1) =   0
                l(2) =   0
                l(3) =   1
                l(4) =   1
                l(5) =   2
                l(6) =   2
     Q(r) pseudized with  8 coefficients,  rinner =    1.300   1.300   1.300
                                                       1.300   1.300

     atomic species   valence    mass     pseudopotential
        Pt            16.00   195.08400     Pt( 1.00)

      4 Sym. Ops. (no inversion) found


                                    s                        frac. trans.

      isym =  1     identity                                     

 cryst.   s( 1) = (     1          0          0      )
                  (     0          1          0      )
                  (     0          0          1      )

 cart.    s( 1) = (  1.0000000  0.0000000  0.0000000 )
                  (  0.0000000  1.0000000  0.0000000 )
                  (  0.0000000  0.0000000  1.0000000 )


      isym =  2     180 deg rotation - cart. axis [0,0,1]        

 cryst.   s( 2) = (    -1          0          0      )
                  (     0         -1          0      )
                  (     0          0          1      )

 cart.    s( 2) = ( -1.0000000  0.0000000  0.0000000 )
                  (  0.0000000 -1.0000000  0.0000000 )
                  (  0.0000000  0.0000000  1.0000000 )


      isym =  3     inv. 180 deg rotation - cart. axis [0,1,0]   

 cryst.   s( 3) = (     1          0          0      )
                  (     0         -1          0      )
                  (     0          0          1      )

 cart.    s( 3) = (  1.0000000  0.0000000  0.0000000 )
                  (  0.0000000 -1.0000000  0.0000000 )
                  (  0.0000000  0.0000000  1.0000000 )


      isym =  4     inv. 180 deg rotation - cart. axis [1,0,0]   

 cryst.   s( 4) = (    -1          0          0      )
                  (     0          1          0      )
                  (     0          0          1      )

 cart.    s( 4) = ( -1.0000000  0.0000000  0.0000000 )
                  (  0.0000000  1.0000000  0.0000000 )
                  (  0.0000000  0.0000000  1.0000000 )


     point group C_2v (mm2) 
     there are  4 classes
     the character table:

       E     C2    s_v   s_v' 
A_1    1.00  1.00  1.00  1.00
A_2    1.00  1.00 -1.00 -1.00
B_1    1.00 -1.00  1.00 -1.00
B_2    1.00 -1.00 -1.00  1.00

     the symmetry operations in each class and the name of the first element:

     E        1
          identity                                               
     C2       2
          180 deg rotation - cart. axis [0,0,1]                  
     s_v      4
          inv. 180 deg rotation - cart. axis [1,0,0]             
     s_v'     3
          inv. 180 deg rotation - cart. axis [0,1,0]             

   Cartesian axes

     site n.     atom                  positions (alat units)
         1           Pt  tau(   1) = (   0.0000000   0.0000000   0.0000000  )
         2           Pt  tau(   2) = (   0.0000000   0.0000000   0.7071065  )
         3           Pt  tau(   3) = (   0.0000000   0.0000000   1.4142130  )
         4           Pt  tau(   4) = (   0.5000000   0.3535533   0.3535533  )
         5           Pt  tau(   5) = (   0.5000000   0.3535533   1.0606598  )
         6           Pt  tau(   6) = (   0.5000000   0.3535533   1.7677663  )

   Crystallographic axes

     site n.     atom                  positions (cryst. coord.)
         1           Pt  tau(   1) = (  0.0000000  0.0000000  0.0000000  )
         2           Pt  tau(   2) = (  0.0000000  0.0000000  0.1525277  )
         3           Pt  tau(   3) = (  0.0000000  0.0000000  0.3050553  )
         4           Pt  tau(   4) = (  0.5000000  0.5000000  0.0762638  )
         5           Pt  tau(   5) = (  0.5000000  0.5000000  0.2287915  )
         6           Pt  tau(   6) = (  0.5000000  0.5000000  0.3813192  )

     number of k points=     9  Gaussian smearing, width (Ry)=  0.0030
                       cart. coord. in units 2pi/alat
        k(    1) = (   0.0000000   0.0000000   0.0000000), wk =   0.1250000
        k(    2) = (   0.0000000   0.3535535   0.0000000), wk =   0.2500000
        k(    3) = (   0.0000000  -0.7071070   0.0000000), wk =   0.1250000
        k(    4) = (   0.2500000   0.0000000   0.0000000), wk =   0.2500000
        k(    5) = (   0.2500000   0.3535535   0.0000000), wk =   0.5000000
        k(    6) = (   0.2500000  -0.7071070   0.0000000), wk =   0.2500000
        k(    7) = (  -0.5000000   0.0000000   0.0000000), wk =   0.1250000
        k(    8) = (  -0.5000000   0.3535535   0.0000000), wk =   0.2500000
        k(    9) = (  -0.5000000  -0.7071070   0.0000000), wk =   0.1250000

                       cryst. coord.
        k(    1) = (   0.0000000   0.0000000   0.0000000), wk =   0.1250000
        k(    2) = (   0.0000000   0.2500000   0.0000000), wk =   0.2500000
        k(    3) = (   0.0000000  -0.5000000   0.0000000), wk =   0.1250000
        k(    4) = (   0.2500000   0.0000000   0.0000000), wk =   0.2500000
        k(    5) = (   0.2500000   0.2500000   0.0000000), wk =   0.5000000
        k(    6) = (   0.2500000  -0.5000000   0.0000000), wk =   0.2500000
        k(    7) = (  -0.5000000   0.0000000   0.0000000), wk =   0.1250000
        k(    8) = (  -0.5000000   0.2500000   0.0000000), wk =   0.2500000
        k(    9) = (  -0.5000000  -0.5000000   0.0000000), wk =   0.1250000

     Dense  grid:   122237 G-vectors     FFT dimensions: (  45,  30, 200)

     Smooth grid:    30857 G-vectors     FFT dimensions: (  27,  20, 125)

     Dynamical RAM for                 wfc:       0.21 MB

     Dynamical RAM for     wfc (w. buffer):       2.13 MB

     Dynamical RAM for           str. fact:       0.12 MB

     Dynamical RAM for           local pot:       0.00 MB

     Dynamical RAM for          nlocal pot:       0.40 MB

     Dynamical RAM for                qrad:       1.39 MB

     Dynamical RAM for          rho,v,vnew:       0.75 MB

     Dynamical RAM for               rhoin:       0.25 MB

     Dynamical RAM for            rho*nmix:       1.86 MB

     Dynamical RAM for           G-vectors:       0.45 MB

     Dynamical RAM for          h,s,v(r/c):       0.04 MB

     Dynamical RAM for          <psi|beta>:       0.10 MB

     Dynamical RAM for                 psi:       0.43 MB

     Dynamical RAM for                hpsi:       0.43 MB

     Dynamical RAM for                spsi:       0.43 MB

     Dynamical RAM for      wfcinit/wfcrot:       0.65 MB

     Dynamical RAM for           addusdens:      22.36 MB

     Dynamical RAM for          addusforce:      23.61 MB

     Dynamical RAM for         addusstress:      23.41 MB

     Estimated static dynamical RAM per process >       8.26 MB

     Estimated max dynamical RAM per process >      31.86 MB

     Estimated total dynamical RAM >     509.84 MB

     Initial potential from superposition of free atoms

     starting charge   92.99993, renormalised to   96.00000

     negative rho (up, down):  1.134E+00 0.000E+00
     Starting wfcs are   72 randomized atomic wfcs

     total cpu time spent up to now is        0.6 secs

     Self-consistent Calculation

     iteration #  1     ecut=    30.00 Ry     beta= 0.30
     Davidson diagonalization with overlap
     ethr =  1.00E-02,  avg # of iterations =  5.0

     negative rho (up, down):  1.081E+00 0.000E+00

     total cpu time spent up to now is        1.3 secs

     total energy              =   -1260.14472334 Ry
     estimated scf accuracy    <      13.30055683 Ry

     iteration #  2     ecut=    30.00 Ry     beta= 0.30
     Davidson diagonalization with overlap
     ethr =  1.00E-02,  avg # of iterations =  4.9

     negative rho (up, down):  1.076E+00 0.000E+00

     total cpu time spent up to now is        2.1 secs

     total energy              =   -1258.28910977 Ry
     estimated scf accuracy    <     103.24493250 Ry

     iteration #  3     ecut=    30.00 Ry     beta= 0.30
     Davidson diagonalization with overlap
     ethr =  1.00E-02,  avg # of iterations =  2.8

     negative rho (up, down):  1.068E+00 0.000E+00

     total cpu time spent up to now is        2.8 secs

     total energy              =   -1263.75629032 Ry
     estimated scf accuracy    <       2.19198846 Ry

     iteration #  4     ecut=    30.00 Ry     beta= 0.30
     Davidson diagonalization with overlap
     ethr =  2.28E-03,  avg # of iterations =  2.3

     negative rho (up, down):  1.065E+00 0.000E+00

     total cpu time spent up to now is        3.3 secs

     total energy              =   -1263.83094404 Ry
     estimated scf accuracy    <       1.30149624 Ry

     iteration #  5     ecut=    30.00 Ry     beta= 0.30
     Davidson diagonalization with overlap
     ethr =  1.36E-03,  avg # of iterations =  3.1

     negative rho (up, down):  1.064E+00 0.000E+00

     total cpu time spent up to now is        3.9 secs

     total energy              =   -1263.73563948 Ry
     estimated scf accuracy    <       5.91294649 Ry

     iteration #  6     ecut=    30.00 Ry     beta= 0.30
     Davidson diagonalization with overlap
     ethr =  1.36E-03,  avg # of iterations =  3.1

     negative rho (up, down):  1.060E+00 0.000E+00

     total cpu time spent up to now is        4.4 secs

     total energy              =   -1263.86846476 Ry
     estimated scf accuracy    <       7.31575488 Ry

     iteration #  7     ecut=    30.00 Ry     beta= 0.30
     Davidson diagonalization with overlap
     ethr =  1.36E-03,  avg # of iterations =  2.1

     negative rho (up, down):  1.057E+00 0.000E+00

     total cpu time spent up to now is        4.9 secs

     total energy              =   -1263.93933888 Ry
     estimated scf accuracy    <       0.53245399 Ry

     iteration #  8     ecut=    30.00 Ry     beta= 0.30
     Davidson diagonalization with overlap
     ethr =  5.55E-04,  avg # of iterations =  1.9

     negative rho (up, down):  1.056E+00 0.000E+00

     total cpu time spent up to now is        5.5 secs

     total energy              =   -1263.95621847 Ry
     estimated scf accuracy    <       0.03848666 Ry

     iteration #  9     ecut=    30.00 Ry     beta= 0.30
     Davidson diagonalization with overlap
     ethr =  4.01E-05,  avg # of iterations =  4.6

     negative rho (up, down):  1.054E+00 0.000E+00

     total cpu time spent up to now is        6.1 secs

     total energy              =   -1263.95440228 Ry
     estimated scf accuracy    <       0.06135158 Ry

     iteration # 10     ecut=    30.00 Ry     beta= 0.30
     Davidson diagonalization with overlap
     ethr =  4.01E-05,  avg # of iterations =  2.7

     negative rho (up, down):  1.053E+00 0.000E+00

     total cpu time spent up to now is        6.6 secs

     total energy              =   -1263.95590153 Ry
     estimated scf accuracy    <       0.00657353 Ry

     iteration # 11     ecut=    30.00 Ry     beta= 0.30
     Davidson diagonalization with overlap
     ethr =  6.85E-06,  avg # of iterations =  5.9

     negative rho (up, down):  1.052E+00 0.000E+00

     total cpu time spent up to now is        7.3 secs

     total energy              =   -1263.95637298 Ry
     estimated scf accuracy    <       0.00294859 Ry

     iteration # 12     ecut=    30.00 Ry     beta= 0.30
     Davidson diagonalization with overlap
     ethr =  3.07E-06,  avg # of iterations =  1.7

     negative rho (up, down):  1.052E+00 0.000E+00

     total cpu time spent up to now is        7.8 secs

     total energy              =   -1263.95654076 Ry
     estimated scf accuracy    <       0.00014798 Ry

     iteration # 13     ecut=    30.00 Ry     beta= 0.30
     Davidson diagonalization with overlap
     ethr =  1.54E-07,  avg # of iterations =  4.0

     negative rho (up, down):  1.052E+00 0.000E+00

     total cpu time spent up to now is        8.4 secs

     total energy              =   -1263.95654814 Ry
     estimated scf accuracy    <       0.00031653 Ry

     iteration # 14     ecut=    30.00 Ry     beta= 0.30
     Davidson diagonalization with overlap
     ethr =  1.54E-07,  avg # of iterations =  3.1

     negative rho (up, down):  1.052E+00 0.000E+00

     total cpu time spent up to now is        9.0 secs

     total energy              =   -1263.95655300 Ry
     estimated scf accuracy    <       0.00034587 Ry

     iteration # 15     ecut=    30.00 Ry     beta= 0.30
     Davidson diagonalization with overlap
     ethr =  1.54E-07,  avg # of iterations =  1.8

     negative rho (up, down):  1.052E+00 0.000E+00

     total cpu time spent up to now is        9.5 secs

     total energy              =   -1263.95655764 Ry
     estimated scf accuracy    <       0.00003784 Ry

     iteration # 16     ecut=    30.00 Ry     beta= 0.30
     Davidson diagonalization with overlap
     ethr =  3.94E-08,  avg # of iterations =  1.3

     negative rho (up, down):  1.052E+00 0.000E+00

     total cpu time spent up to now is       10.0 secs

     total energy              =   -1263.95655806 Ry
     estimated scf accuracy    <       0.00000154 Ry

     iteration # 17     ecut=    30.00 Ry     beta= 0.30
     Davidson diagonalization with overlap
     ethr =  1.61E-09,  avg # of iterations =  1.6

     negative rho (up, down):  1.052E+00 0.000E+00

     total cpu time spent up to now is       10.5 secs

     End of self-consistent calculation

          k = 0.0000 0.0000 0.0000 (  3869 PWs)   bands (ev):

   -45.9708 -45.8644 -45.8248 -45.8167 -45.7904 -45.7864 -45.6904 -45.6883
   -45.6878 -45.6425 -45.6154 -45.5702 -45.0437 -45.0432 -44.9341 -44.9337
   -44.7989 -44.7977  -2.3031  -0.6818   0.5484   1.0228   1.1233   1.3553
     1.9811   2.5932   2.7816   2.7843   3.2632   3.3968   3.4717   3.5080
     3.8240   3.9332   4.0373   4.2449   4.6997   4.7050   5.1087   5.1593
     5.2704   5.4357   5.5764   5.8021   6.0941   6.2875   6.4545   6.6711
     6.7464   6.8813   7.2007   7.6652   9.7292  10.1519  11.7363  11.8978
    12.9912  13.7107

     occupation numbers 
     1.0000   1.0000   1.0000   1.0000   1.0000   1.0000   1.0000   1.0000
     1.0000   1.0000   1.0000   1.0000   1.0000   1.0000   1.0000   1.0000
     1.0000   1.0000   1.0000   1.0000   1.0000   1.0000   1.0000   1.0000
     1.0000   1.0000   1.0000   1.0000   1.0000   1.0000   1.0000   1.0000
     1.0000   1.0000   1.0000   1.0000   1.0000   1.0000   1.0000   1.0000
     1.0000   1.0000   1.0000   1.0000   1.0000   1.0000   1.0000   1.0000
     1.0000   0.3063   0.0000   0.0000   0.0000   0.0000   0.0000   0.0000
     0.0000   0.0000

          k = 0.0000 0.3536 0.0000 (  3863 PWs)   bands (ev):

   -45.9672 -45.9273 -45.9177 -45.8356 -45.8205 -45.8019 -45.7577 -45.7316
   -45.6880 -45.6687 -45.6010 -45.5716 -45.1473 -45.1467 -44.9304 -44.9300
   -44.7885 -44.7876  -0.8525   0.3916   1.2397   1.4062   1.7051   1.7209
     1.9561   2.4582   2.4683   2.4951   2.7845   3.2340   3.6943   3.8575
     3.8908   4.1328   4.2376   4.3525   4.7887   4.9083   5.0137   5.1962
     5.3706   5.5014   5.8929   5.9099   6.0534   6.1687   6.2960   6.5715
     6.9063   7.1187   7.1713   8.5160  10.9087  12.9909  13.0523  13.0959
    13.8191  14.4899

     occupation numbers 
     1.0000   1.0000   1.0000   1.0000   1.0000   1.0000   1.0000   1.0000
     1.0000   1.0000   1.0000   1.0000   1.0000   1.0000   1.0000   1.0000
     1.0000   1.0000   1.0000   1.0000   1.0000   1.0000   1.0000   1.0000
     1.0000   1.0000   1.0000   1.0000   1.0000   1.0000   1.0000   1.0000
     1.0000   1.0000   1.0000   1.0000   1.0000   1.0000   1.0000   1.0000
     1.0000   1.0000   1.0000   1.0000   1.0000   1.0000   1.0000   1.0000
     0.0851   0.0000   0.0000   0.0000   0.0000   0.0000   0.0000   0.0000
     0.0000   0.0000

          k = 0.0000-0.7071 0.0000 (  3878 PWs)   bands (ev):

   -46.0484 -46.0483 -45.9317 -45.9314 -45.8150 -45.8148 -45.7359 -45.7358
   -45.6985 -45.6981 -45.5850 -45.5847 -45.2470 -45.2465 -44.9267 -44.9262
   -44.7785 -44.7780   0.5837   0.5837   0.9821   0.9821   1.4964   1.4964
     1.8728   1.8729   2.4312   2.4314   3.1036   3.1039   3.3396   3.3397
     4.5635   4.5638   4.8632   4.8634   5.7132   5.7134   6.0182   6.0182
     6.5546   6.5548   6.6571   6.6573   6.7861   6.7863   7.1318   7.1318
     8.6720   8.6721   9.0920   9.0922   9.2368   9.2368  12.0583  12.0586
    15.6301  15.6304

     occupation numbers 
     1.0000   1.0000   1.0000   1.0000   1.0000   1.0000   1.0000   1.0000
     1.0000   1.0000   1.0000   1.0000   1.0000   1.0000   1.0000   1.0000
     1.0000   1.0000   1.0000   1.0000   1.0000   1.0000   1.0000   1.0000
     1.0000   1.0000   1.0000   1.0000   1.0000   1.0000   1.0000   1.0000
     1.0000   1.0000   1.0000   1.0000   1.0000   1.0000   1.0000   1.0000
     1.0000   1.0000   1.0000   1.0000   0.9974   0.9973   0.0000   0.0000
     0.0000   0.0000   0.0000   0.0000   0.0000   0.0000   0.0000   0.0000
     0.0000   0.0000

          k = 0.2500 0.0000 0.0000 (  3899 PWs)   bands (ev):

   -45.9516 -45.8997 -45.8489 -45.8175 -45.7941 -45.7326 -45.6948 -45.6937
   -45.6933 -45.6528 -45.5943 -45.5795 -45.0448 -45.0443 -44.9365 -44.9360
   -44.7962 -44.7955  -1.5763  -0.3191   0.5904   0.7249   1.2370   1.4512
     1.6837   2.7974   3.0839   3.0921   3.4152   3.4674   3.6401   3.7532
     3.8321   3.8819   4.1029   4.4028   4.4389   4.6875   4.7475   5.0780
     5.2860   5.5745   5.8097   5.9021   6.0306   6.0515   6.5520   6.6356
     6.7260   6.9137   7.0318   7.4305   7.9150   9.6233   9.9255  11.3155
    12.4926  12.6936

     occupation numbers 
     1.0000   1.0000   1.0000   1.0000   1.0000   1.0000   1.0000   1.0000
     1.0000   1.0000   1.0000   1.0000   1.0000   1.0000   1.0000   1.0000
     1.0000   1.0000   1.0000   1.0000   1.0000   1.0000   1.0000   1.0000
     1.0000   1.0000   1.0000   1.0000   1.0000   1.0000   1.0000   1.0000
     1.0000   1.0000   1.0000   1.0000   1.0000   1.0000   1.0000   1.0000
     1.0000   1.0000   1.0000   1.0000   1.0000   1.0000   1.0000   1.0000
     1.0000   0.0518   0.0000   0.0000   0.0000   0.0000   0.0000   0.0000
     0.0000   0.0000

          k = 0.2500 0.3536 0.0000 (  3863 PWs)   bands (ev):

   -45.9827 -45.9347 -45.9045 -45.8501 -45.8304 -45.8009 -45.7605 -45.7142
   -45.6766 -45.6725 -45.5950 -45.5752 -45.1466 -45.1461 -44.9301 -44.9297
   -44.7880 -44.7874  -0.3372   0.8665   1.3498   1.6406   1.7789   2.0923
     2.1925   2.4370   2.5671   2.8465   2.8516   3.2855   3.5367   3.5620
     3.8810   3.9030   4.0778   4.1745   4.7442   4.8271   4.8852   4.9878
     5.0464   5.2662   5.5625   5.7512   6.0132   6.1971   6.6714   6.7196
     6.7836   6.8393   7.7113   9.3325  10.2471  10.8372  11.9759  12.6242
    13.7712  13.7823

     occupation numbers 
     1.0000   1.0000   1.0000   1.0000   1.0000   1.0000   1.0000   1.0000
     1.0000   1.0000   1.0000   1.0000   1.0000   1.0000   1.0000   1.0000
     1.0000   1.0000   1.0000   1.0000   1.0000   1.0000   1.0000   1.0000
     1.0000   1.0000   1.0000   1.0000   1.0000   1.0000   1.0000   1.0000
     1.0000   1.0000   1.0000   1.0000   1.0000   1.0000   1.0000   1.0000
     1.0000   1.0000   1.0000   1.0000   1.0000   1.0000   1.0000   1.0000
     0.9980   0.8287   0.0000   0.0000   0.0000   0.0000   0.0000   0.0000
     0.0000   0.0000

          k = 0.2500-0.7071 0.0000 (  3840 PWs)   bands (ev):

   -46.0604 -46.0603 -45.9462 -45.9460 -45.7816 -45.7815 -45.7544 -45.7543
   -45.6956 -45.6953 -45.5818 -45.5814 -45.2447 -45.2442 -44.9244 -44.9239
   -44.7798 -44.7793   0.7853   0.7853   1.0874   1.0874   1.3971   1.3972
     2.2550   2.2550   2.6844   2.6845   3.5335   3.5335   3.7726   3.7726
     3.9941   3.9942   4.6458   4.6458   5.1992   5.1995   5.7567   5.7568
     5.9463   5.9465   6.4680   6.4682   6.9569   6.9571   7.0347   7.0349
     8.6231   8.6233   9.7630   9.7631  11.1008  11.1008  12.6035  12.6037
    14.0748  14.0749

     occupation numbers 
     1.0000   1.0000   1.0000   1.0000   1.0000   1.0000   1.0000   1.0000
     1.0000   1.0000   1.0000   1.0000   1.0000   1.0000   1.0000   1.0000
     1.0000   1.0000   1.0000   1.0000   1.0000   1.0000   1.0000   1.0000
     1.0000   1.0000   1.0000   1.0000   1.0000   1.0000   1.0000   1.0000
     1.0000   1.0000   1.0000   1.0000   1.0000   1.0000   1.0000   1.0000
     1.0000   1.0000   1.0000   1.0000   0.0009   0.0009   0.0000   0.0000
     0.0000   0.0000   0.0000   0.0000   0.0000   0.0000   0.0000   0.0000
     0.0000   0.0000

          k =-0.5000 0.0000 0.0000 (  3898 PWs)   bands (ev):

   -45.9334 -45.9334 -45.8157 -45.8156 -45.7913 -45.7912 -45.6993 -45.6990
   -45.6482 -45.6480 -45.5916 -45.5913 -45.0459 -45.0454 -44.9385 -44.9381
   -44.7937 -44.7932   0.0124   0.0124   0.2816   0.2817   1.3337   1.3338
     2.2885   2.2887   3.2341   3.2343   3.5291   3.5291   3.5305   3.5306
     3.7713   3.7715   4.3077   4.3077   4.4233   4.4234   5.2407   5.2408
     5.5036   5.5037   6.1504   6.1506   6.3459   6.3460   6.5843   6.5843
     6.7748   6.7749   6.9377   6.9378   7.3300   7.3300   8.9953   8.9956
    13.4068  13.4072

     occupation numbers 
     1.0000   1.0000   1.0000   1.0000   1.0000   1.0000   1.0000   1.0000
     1.0000   1.0000   1.0000   1.0000   1.0000   1.0000   1.0000   1.0000
     1.0000   1.0000   1.0000   1.0000   1.0000   1.0000   1.0000   1.0000
     1.0000   1.0000   1.0000   1.0000   1.0000   1.0000   1.0000   1.0000
     1.0000   1.0000   1.0000   1.0000   1.0000   1.0000   1.0000   1.0000
     1.0000   1.0000   1.0000   1.0000   1.0000   1.0000   1.0000   1.0000
     0.9993   0.9993   0.0070   0.0069   0.0000   0.0000   0.0000   0.0000
     0.0000   0.0000

          k =-0.5000 0.3536 0.0000 (  3860 PWs)   bands (ev):

   -45.9696 -45.9695 -45.8884 -45.8883 -45.8088 -45.8086 -45.7345 -45.7345
   -45.6676 -45.6675 -45.5842 -45.5839 -45.1460 -45.1455 -44.9299 -44.9294
   -44.7875 -44.7870   0.8209   0.8209   1.4730   1.4730   2.2313   2.2314
     2.6032   2.6033   2.8973   2.8973   3.0896   3.0897   3.5565   3.5566
     3.7910   3.7911   4.1091   4.1091   4.5133   4.5134   4.7773   4.7777
     4.9271   4.9272   5.5822   5.5822   5.9636   5.9637   6.4629   6.4631
     7.0307   7.0307   8.2783   8.2783   9.6871   9.6871  11.5768  11.5769
    14.1791  14.1792

     occupation numbers 
     1.0000   1.0000   1.0000   1.0000   1.0000   1.0000   1.0000   1.0000
     1.0000   1.0000   1.0000   1.0000   1.0000   1.0000   1.0000   1.0000
     1.0000   1.0000   1.0000   1.0000   1.0000   1.0000   1.0000   1.0000
     1.0000   1.0000   1.0000   1.0000   1.0000   1.0000   1.0000   1.0000
     1.0000   1.0000   1.0000   1.0000   1.0000   1.0000   1.0000   1.0000
     1.0000   1.0000   1.0000   1.0000   1.0000   1.0000   1.0000   1.0000
     0.0000   0.0000   0.0000   0.0000   0.0000   0.0000   0.0000   0.0000
     0.0000   0.0000

          k =-0.5000-0.7071 0.0000 (  3788 PWs)   bands (ev):

   -46.0762 -46.0761 -45.9463 -45.9461 -45.7730 -45.7729 -45.7575 -45.7574
   -45.6922 -45.6919 -45.5804 -45.5801 -45.2420 -45.2415 -44.9220 -44.9215
   -44.7812 -44.7807   0.4821   0.4821   1.7168   1.7169   1.9361   1.9362
     2.7088   2.7088   3.0541   3.0544   3.1630   3.1631   3.4232   3.4233
     3.7480   3.7481   4.5155   4.5156   4.8696   4.8698   5.5126   5.5130
     6.1524   6.1525   6.7601   6.7603   6.8629   6.8631   7.0550   7.0553
     8.0700   8.0701  10.7148  10.7149  12.1885  12.1888  12.2950  12.2951
    12.7630  12.7631

     occupation numbers 
     1.0000   1.0000   1.0000   1.0000   1.0000   1.0000   1.0000   1.0000
     1.0000   1.0000   1.0000   1.0000   1.0000   1.0000   1.0000   1.0000
     1.0000   1.0000   1.0000   1.0000   1.0000   1.0000   1.0000   1.0000
     1.0000   1.0000   1.0000   1.0000   1.0000   1.0000   1.0000   1.0000
     1.0000   1.0000   1.0000   1.0000   1.0000   1.0000   1.0000   1.0000
     1.0000   1.0000   0.9999   0.9999   0.5528   0.5499   0.0000   0.0000
     0.0000   0.0000   0.0000   0.0000   0.0000   0.0000   0.0000   0.0000
     0.0000   0.0000

     the Fermi energy is     6.8667 ev

!    total energy              =   -1263.95655746 Ry
     estimated scf accuracy    <       0.00000090 Ry
     smearing contrib. (-TS)   =      -0.00073750 Ry
     internal energy E=F+TS    =   -1263.95581996 Ry

     The total energy is F=E-TS. E is the sum of the following terms:
     one-electron contribution =   -5143.24607246 Ry
     hartree contribution      =    2605.14572475 Ry
     xc contribution           =    -340.97447785 Ry
     ewald contribution        =    1615.11900560 Ry

     convergence has been achieved in  17 iterations

     negative rho (up, down):  1.052E+00 0.000E+00

     Forces acting on atoms (cartesian axes, Ry/au):

     atom    1 type  1   force =     0.00000000    0.00000000    0.02909323
     atom    2 type  1   force =     0.00000000    0.00000000   -0.01339979
     atom    3 type  1   force =     0.00000000    0.00000000    0.03262044
     atom    4 type  1   force =     0.00000000    0.00000000   -0.03262850
     atom    5 type  1   force =     0.00000000    0.00000000    0.01341068
     atom    6 type  1   force =     0.00000000    0.00000000   -0.02909605
     The non-local contrib.  to forces
     atom    1 type  1   force =     0.00000000    0.00000000   -0.13232783
     atom    2 type  1   force =     0.00000000    0.00000000   -0.00910083
     atom    3 type  1   force =     0.00000000    0.00000000   -0.00678843
     atom    4 type  1   force =     0.00000000    0.00000000    0.00665622
     atom    5 type  1   force =     0.00000000    0.00000000    0.00892835
     atom    6 type  1   force =     0.00000000    0.00000000    0.13222323
     The ionic contribution  to forces
     atom    1 type  1   force =    -0.00000000   -0.00000000 -203.59521512
     atom    2 type  1   force =    -0.00000000   -0.00000000  -43.48063035
     atom    3 type  1   force =    -0.00000000    0.00000000  133.26754034
     atom    4 type  1   force =     0.00000000    0.00000000 -133.26754034
     atom    5 type  1   force =    -0.00000000    0.00000000   43.48063035
     atom    6 type  1   force =     0.00000000    0.00000000  203.59521512
     The local contribution  to forces
     atom    1 type  1   force =     0.00000000    0.00000000  203.74028642
     atom    2 type  1   force =     0.00000000   -0.00000000   43.48689140
     atom    3 type  1   force =     0.00000000    0.00000000 -133.22360298
     atom    4 type  1   force =     0.00000000    0.00000000  133.22721438
     atom    5 type  1   force =     0.00000000    0.00000000  -43.48253006
     atom    6 type  1   force =    -0.00000000    0.00000000 -203.73875188
     The core correction contribution to forces
     atom    1 type  1   force =    -0.00000000   -0.00000000    0.01786070
     atom    2 type  1   force =     0.00000000    0.00000000   -0.00677957
     atom    3 type  1   force =    -0.00000000   -0.00000000   -0.00487592
     atom    4 type  1   force =    -0.00000000   -0.00000000    0.00487877
     atom    5 type  1   force =     0.00000000   -0.00000000    0.00678128
     atom    6 type  1   force =    -0.00000000   -0.00000000   -0.01786971
     The Hubbard contrib.    to forces
     atom    1 type  1   force =     0.00000000    0.00000000    0.00000000
     atom    2 type  1   force =     0.00000000    0.00000000    0.00000000
     atom    3 type  1   force =     0.00000000    0.00000000    0.00000000
     atom    4 type  1   force =     0.00000000    0.00000000    0.00000000
     atom    5 type  1   force =     0.00000000    0.00000000    0.00000000
     atom    6 type  1   force =     0.00000000    0.00000000    0.00000000
     The SCF correction term to forces
     atom    1 type  1   force =    -0.00000000    0.00000000   -0.00153962
     atom    2 type  1   force =     0.00000000   -0.00000000   -0.00380913
     atom    3 type  1   force =    -0.00000000    0.00000000    0.00031875
     atom    4 type  1   force =    -0.00000000    0.00000000   -0.00386621
     atom    5 type  1   force =    -0.00000000   -0.00000000   -0.00042793
     atom    6 type  1   force =     0.00000000   -0.00000000    0.00005849

     Total force =     0.064661     Total SCF correction =     0.005667


     Computing stress (Cartesian axis) and pressure


     negative rho (up, down):  1.052E+00 0.000E+00
          total   stress  (Ry/bohr**3)                   (kbar)     P=      -64.63
  -0.00037200   0.00000000   0.00000000          -54.72        0.00        0.00
   0.00000000  -0.00074207   0.00000000            0.00     -109.16        0.00
   0.00000000   0.00000000  -0.00020389            0.00        0.00      -29.99

     kinetic stress (kbar)  24160.35      0.00      0.00
                                0.00  23867.43      0.00
                                0.00      0.00  24361.10

     local   stress (kbar)-512738.31     -0.00     -0.00
                               -0.00-517613.32     -0.00
                               -0.00     -0.00 532168.06

     nonloc. stress (kbar)   -168.87      0.00      0.00
                                0.00   -167.43      0.00
                                0.00      0.00   -140.28

     hartree stress (kbar) 262356.36     -0.00      0.00
                               -0.00 264278.74     -0.00
                                0.00     -0.00-251180.14

     exc-cor stress (kbar)  17728.89      0.00     -0.00
                                0.00  17730.45      0.00
                               -0.00      0.00  17725.83

     corecor stress (kbar) -24447.71      0.00      0.00
                                0.00 -24433.92     -0.00
                                0.00     -0.00 -24455.63

     ewald   stress (kbar) 233054.57      0.00      0.00
                                0.00 236228.89      0.00
                                0.00      0.00-298508.93

     hubbard stress (kbar)      0.00      0.00      0.00
                                0.00      0.00      0.00
                                0.00      0.00      0.00

     DFT-D   stress (kbar)      0.00      0.00      0.00
                                0.00      0.00      0.00
                                0.00      0.00      0.00

     XDM     stress (kbar)      0.00      0.00      0.00
                                0.00      0.00      0.00
                                0.00      0.00      0.00

     dft-nl  stress (kbar)      0.00      0.00      0.00
                                0.00      0.00      0.00
                                0.00      0.00      0.00

     TS-vdW  stress (kbar)      0.00      0.00      0.00
                                0.00      0.00      0.00
                                0.00      0.00      0.00



     BFGS Geometry Optimization
     Energy error            =      0.0E+00
     Gradient error          =      3.3E-02

     number of scf cycles    =   1
     number of bfgs steps    =   0

     energy   new            =   -1263.9565574624 Ry

     new trust radius        =       0.0326284993 bohr
     new conv_thr            =       0.0000010000 Ry


ATOMIC_POSITIONS (angstrom)
Pt            0.0000000000        0.0000000000        0.0153954753
Pt            0.0000000000        0.0000000000        2.8049091348
Pt            0.0000000000        0.0000000000        5.6412619915
Pt            1.9883850000        1.4060000000        1.3887337418
Pt            1.9883850000        1.4060000000        4.2250966254
Pt            1.9883850000        1.4060000000        7.0146030313



     Writing output data file ./surface.save/
     NEW-OLD atomic charge density approx. for the potential

     negative rho (up, down):  1.052E+00 0.000E+00

     total cpu time spent up to now is       11.8 secs

     Self-consistent Calculation

     iteration #  1     ecut=    30.00 Ry     beta= 0.30
     Davidson diagonalization with overlap
     ethr =  1.00E-06,  avg # of iterations =  7.0

     negative rho (up, down):  1.052E+00 0.000E+00

     total cpu time spent up to now is       13.0 secs

     total energy              =   -1263.95725141 Ry
     estimated scf accuracy    <       0.00654755 Ry

     iteration #  2     ecut=    30.00 Ry     beta= 0.30
     Davidson diagonalization with overlap
     ethr =  6.82E-06,  avg # of iterations =  5.6

     negative rho (up, down):  1.052E+00 0.000E+00

     total cpu time spent up to now is       13.8 secs

     total energy              =   -1263.92179971 Ry
     estimated scf accuracy    <       4.01219424 Ry

     iteration #  3     ecut=    30.00 Ry     beta= 0.30
     Davidson diagonalization with overlap
     ethr =  6.82E-06,  avg # of iterations =  5.8

     negative rho (up, down):  1.052E+00 0.000E+00

     total cpu time spent up to now is       14.6 secs

     total energy              =   -1263.95836260 Ry
     estimated scf accuracy    <       0.08550892 Ry

     iteration #  4     ecut=    30.00 Ry     beta= 0.30
     Davidson diagonalization with overlap
     ethr =  6.82E-06,  avg # of iterations =  2.0

     negative rho (up, down):  1.052E+00 0.000E+00

     total cpu time spent up to now is       15.1 secs

     total energy              =   -1263.96017775 Ry
     estimated scf accuracy    <       0.00244839 Ry

     iteration #  5     ecut=    30.00 Ry     beta= 0.30
     Davidson diagonalization with overlap
     ethr =  2.55E-06,  avg # of iterations =  1.1

     negative rho (up, down):  1.052E+00 0.000E+00

     total cpu time spent up to now is       15.6 secs

     total energy              =   -1263.96026465 Ry
     estimated scf accuracy    <       0.00012556 Ry

     iteration #  6     ecut=    30.00 Ry     beta= 0.30
     Davidson diagonalization with overlap
     ethr =  1.31E-07,  avg # of iterations =  1.6

     negative rho (up, down):  1.052E+00 0.000E+00

     total cpu time spent up to now is       16.1 secs

     total energy              =   -1263.96025686 Ry
     estimated scf accuracy    <       0.00011921 Ry

     iteration #  7     ecut=    30.00 Ry     beta= 0.30
     Davidson diagonalization with overlap
     ethr =  1.24E-07,  avg # of iterations =  1.0

     negative rho (up, down):  1.052E+00 0.000E+00

     total cpu time spent up to now is       16.6 secs

     total energy              =   -1263.96026622 Ry
     estimated scf accuracy    <       0.00015666 Ry

     iteration #  8     ecut=    30.00 Ry     beta= 0.30
     Davidson diagonalization with overlap
     ethr =  1.24E-07,  avg # of iterations =  1.0

     negative rho (up, down):  1.052E+00 0.000E+00

     total cpu time spent up to now is       17.0 secs

     total energy              =   -1263.96026941 Ry
     estimated scf accuracy    <       0.00000523 Ry

     iteration #  9     ecut=    30.00 Ry     beta= 0.30
     Davidson diagonalization with overlap
     ethr =  5.44E-09,  avg # of iterations =  1.2

     negative rho (up, down):  1.052E+00 0.000E+00

     total cpu time spent up to now is       17.5 secs

     total energy              =   -1263.96026981 Ry
     estimated scf accuracy    <       0.00000157 Ry

     iteration # 10     ecut=    30.00 Ry     beta= 0.30
     Davidson diagonalization with overlap
     ethr =  1.63E-09,  avg # of iterations =  1.0

     negative rho (up, down):  1.052E+00 0.000E+00

     total cpu time spent up to now is       18.0 secs

     End of self-consistent calculation

          k = 0.0000 0.0000 0.0000 (  3869 PWs)   bands (ev):

   -45.9385 -45.8368 -45.8137 -45.7891 -45.7677 -45.7594 -45.6921 -45.6873
   -45.6829 -45.6322 -45.6076 -45.5623 -45.0741 -45.0740 -44.9706 -44.9705
   -44.8267 -44.8255  -2.2769  -0.7253   0.5787   1.0045   1.1534   1.3129
     1.9589   2.5812   2.7957   2.8183   3.2505   3.3994   3.4637   3.5441
     3.8457   3.9023   4.0502   4.1990   4.7175   4.7397   5.0804   5.1060
     5.2689   5.4431   5.5454   5.7761   6.0825   6.2695   6.4812   6.6550
     6.7422   6.9089   7.2150   7.6616   9.7560  10.1508  11.7861  11.9060
    12.9568  13.7544

     occupation numbers 
     1.0000   1.0000   1.0000   1.0000   1.0000   1.0000   1.0000   1.0000
     1.0000   1.0000   1.0000   1.0000   1.0000   1.0000   1.0000   1.0000
     1.0000   1.0000   1.0000   1.0000   1.0000   1.0000   1.0000   1.0000
     1.0000   1.0000   1.0000   1.0000   1.0000   1.0000   1.0000   1.0000
     1.0000   1.0000   1.0000   1.0000   1.0000   1.0000   1.0000   1.0000
     1.0000   1.0000   1.0000   1.0000   1.0000   1.0000   1.0000   1.0000
     1.0000   0.1273   0.0000   0.0000   0.0000   0.0000   0.0000   0.0000
     0.0000   0.0000

          k = 0.0000 0.3536 0.0000 (  3863 PWs)   bands (ev):

   -45.9387 -45.9020 -45.8851 -45.8269 -45.8099 -45.7855 -45.7375 -45.7114
   -45.6924 -45.6615 -45.5939 -45.5646 -45.1773 -45.1771 -44.9682 -44.9680
   -44.8161 -44.8153  -0.8243   0.3622   1.2384   1.4517   1.7285   1.7604
     1.9862   2.4150   2.4201   2.4733   2.7434   3.2096   3.6456   3.8391
     3.8690   4.1298   4.2253   4.3200   4.7558   4.9118   4.9939   5.2048
     5.3714   5.5270   5.9195   5.9387   6.0670   6.1942   6.2996   6.5543
     6.9318   7.1256   7.1847   8.5374  10.9331  12.9913  13.0842  13.1115
    13.8294  14.4896

     occupation numbers 
     1.0000   1.0000   1.0000   1.0000   1.0000   1.0000   1.0000   1.0000
     1.0000   1.0000   1.0000   1.0000   1.0000   1.0000   1.0000   1.0000
     1.0000   1.0000   1.0000   1.0000   1.0000   1.0000   1.0000   1.0000
     1.0000   1.0000   1.0000   1.0000   1.0000   1.0000   1.0000   1.0000
     1.0000   1.0000   1.0000   1.0000   1.0000   1.0000   1.0000   1.0000
     1.0000   1.0000   1.0000   1.0000   1.0000   1.0000   1.0000   1.0000
     0.0267   0.0000   0.0000   0.0000   0.0000   0.0000   0.0000   0.0000
     0.0000   0.0000

          k = 0.0000-0.7071 0.0000 (  3878 PWs)   bands (ev):

   -46.0202 -46.0201 -45.9272 -45.9271 -45.7799 -45.7798 -45.7112 -45.7111
   -45.7062 -45.7062 -45.5797 -45.5797 -45.2757 -45.2757 -44.9656 -44.9655
   -44.8059 -44.8057   0.6113   0.6113   1.0129   1.0129   1.4802   1.4803
     1.8487   1.8487   2.4304   2.4304   3.0414   3.0414   3.3093   3.3093
     4.5327   4.5328   4.8800   4.8800   5.7186   5.7186   6.0092   6.0092
     6.5735   6.5736   6.6752   6.6753   6.7958   6.7958   7.1480   7.1480
     8.6836   8.6837   9.0878   9.0878   9.2439   9.2440  12.0865  12.0865
    15.6435  15.6437

     occupation numbers 
     1.0000   1.0000   1.0000   1.0000   1.0000   1.0000   1.0000   1.0000
     1.0000   1.0000   1.0000   1.0000   1.0000   1.0000   1.0000   1.0000
     1.0000   1.0000   1.0000   1.0000   1.0000   1.0000   1.0000   1.0000
     1.0000   1.0000   1.0000   1.0000   1.0000   1.0000   1.0000   1.0000
     1.0000   1.0000   1.0000   1.0000   1.0000   1.0000   1.0000   1.0000
     1.0000   1.0000   1.0000   1.0000   0.9973   0.9973   0.0000   0.0000
     0.0000   0.0000   0.0000   0.0000   0.0000   0.0000   0.0000   0.0000
     0.0000   0.0000

          k = 0.2500 0.0000 0.0000 (  3899 PWs)   bands (ev):

   -45.9165 -45.8766 -45.8213 -45.8055 -45.7692 -45.7067 -45.6941 -45.6910
   -45.6908 -45.6448 -45.5850 -45.5729 -45.0755 -45.0754 -44.9734 -44.9731
   -44.8236 -44.8229  -1.5492  -0.3465   0.5885   0.7567   1.2453   1.4106
     1.6781   2.7784   3.0780   3.0837   3.3842   3.4842   3.6989   3.7592
     3.8121   3.8878   4.0711   4.3835   4.4558   4.6523   4.7749   5.0955
     5.2499   5.5664   5.7900   5.8781   6.0111   6.0551   6.5739   6.6277
     6.7499   6.9151   7.0462   7.4327   7.9159   9.6111   9.9441  11.3522
    12.5056  12.7126

     occupation numbers 
     1.0000   1.0000   1.0000   1.0000   1.0000   1.0000   1.0000   1.0000
     1.0000   1.0000   1.0000   1.0000   1.0000   1.0000   1.0000   1.0000
     1.0000   1.0000   1.0000   1.0000   1.0000   1.0000   1.0000   1.0000
     1.0000   1.0000   1.0000   1.0000   1.0000   1.0000   1.0000   1.0000
     1.0000   1.0000   1.0000   1.0000   1.0000   1.0000   1.0000   1.0000
     1.0000   1.0000   1.0000   1.0000   1.0000   1.0000   1.0000   1.0000
     1.0000   0.0882   0.0000   0.0000   0.0000   0.0000   0.0000   0.0000
     0.0000   0.0000

          k = 0.2500 0.3536 0.0000 (  3863 PWs)   bands (ev):

   -45.9540 -45.9061 -45.8757 -45.8341 -45.8192 -45.7916 -45.7486 -45.6928
   -45.6742 -45.6665 -45.5874 -45.5684 -45.1765 -45.1764 -44.9676 -44.9675
   -44.8155 -44.8150  -0.3095   0.8444   1.3720   1.6610   1.8102   2.1293
     2.1989   2.4076   2.5367   2.8230   2.8305   3.2824   3.5192   3.5209
     3.8434   3.8753   4.0548   4.1849   4.7181   4.8083   4.8961   5.0001
     5.0397   5.2380   5.5727   5.7567   6.0137   6.2099   6.6836   6.7388
     6.7777   6.8457   7.7409   9.3666  10.2509  10.8422  11.9902  12.6313
    13.7935  13.7970

     occupation numbers 
     1.0000   1.0000   1.0000   1.0000   1.0000   1.0000   1.0000   1.0000
     1.0000   1.0000   1.0000   1.0000   1.0000   1.0000   1.0000   1.0000
     1.0000   1.0000   1.0000   1.0000   1.0000   1.0000   1.0000   1.0000
     1.0000   1.0000   1.0000   1.0000   1.0000   1.0000   1.0000   1.0000
     1.0000   1.0000   1.0000   1.0000   1.0000   1.0000   1.0000   1.0000
     1.0000   1.0000   1.0000   1.0000   1.0000   1.0000   1.0000   1.0000
     0.9997   0.8535   0.0000   0.0000   0.0000   0.0000   0.0000   0.0000
     0.0000   0.0000

          k = 0.2500-0.7071 0.0000 (  3840 PWs)   bands (ev):

   -46.0318 -46.0318 -45.9390 -45.9390 -45.7521 -45.7521 -45.7312 -45.7311
   -45.7015 -45.7014 -45.5752 -45.5752 -45.2731 -45.2730 -44.9627 -44.9626
   -44.8074 -44.8073   0.8266   0.8266   1.0990   1.0990   1.3875   1.3875
     2.2259   2.2259   2.6536   2.6536   3.5057   3.5057   3.7552   3.7552
     3.9887   3.9888   4.6725   4.6725   5.1896   5.1897   5.7255   5.7255
     5.9669   5.9669   6.4653   6.4654   6.9611   6.9611   7.0494   7.0494
     8.6300   8.6300   9.7466   9.7466  11.1157  11.1157  12.6198  12.6198
    14.0812  14.0815

     occupation numbers 
     1.0000   1.0000   1.0000   1.0000   1.0000   1.0000   1.0000   1.0000
     1.0000   1.0000   1.0000   1.0000   1.0000   1.0000   1.0000   1.0000
     1.0000   1.0000   1.0000   1.0000   1.0000   1.0000   1.0000   1.0000
     1.0000   1.0000   1.0000   1.0000   1.0000   1.0000   1.0000   1.0000
     1.0000   1.0000   1.0000   1.0000   1.0000   1.0000   1.0000   1.0000
     1.0000   1.0000   1.0000   1.0000   0.0016   0.0016   0.0000   0.0000
     0.0000   0.0000   0.0000   0.0000   0.0000   0.0000   0.0000   0.0000
     0.0000   0.0000

          k =-0.5000 0.0000 0.0000 (  3898 PWs)   bands (ev):

   -45.9024 -45.9024 -45.7882 -45.7881 -45.7810 -45.7810 -45.6969 -45.6968
   -45.6363 -45.6362 -45.5849 -45.5849 -45.0768 -45.0768 -44.9756 -44.9755
   -44.8207 -44.8205   0.0524   0.0524   0.2716   0.2717   1.2962   1.2962
     2.2958   2.2958   3.2466   3.2466   3.5190   3.5190   3.5582   3.5582
     3.7555   3.7555   4.2868   4.2868   4.3788   4.3788   5.1992   5.1992
     5.5063   5.5063   6.1743   6.1744   6.3485   6.3485   6.5888   6.5889
     6.7729   6.7729   6.9533   6.9533   7.3222   7.3222   9.0420   9.0420
    13.4165  13.4168

     occupation numbers 
     1.0000   1.0000   1.0000   1.0000   1.0000   1.0000   1.0000   1.0000
     1.0000   1.0000   1.0000   1.0000   1.0000   1.0000   1.0000   1.0000
     1.0000   1.0000   1.0000   1.0000   1.0000   1.0000   1.0000   1.0000
     1.0000   1.0000   1.0000   1.0000   1.0000   1.0000   1.0000   1.0000
     1.0000   1.0000   1.0000   1.0000   1.0000   1.0000   1.0000   1.0000
     1.0000   1.0000   1.0000   1.0000   1.0000   1.0000   1.0000   1.0000
     0.9998   0.9998   0.0037   0.0037   0.0000   0.0000   0.0000   0.0000
     0.0000   0.0000

          k =-0.5000 0.3536 0.0000 (  3860 PWs)   bands (ev):

   -45.9401 -45.9401 -45.8662 -45.8661 -45.8003 -45.8002 -45.7217 -45.7217
   -45.6588 -45.6588 -45.5769 -45.5769 -45.1758 -45.1758 -44.9671 -44.9670
   -44.8148 -44.8146   0.8486   0.8486   1.4832   1.4833   2.2158   2.2159
     2.6375   2.6375   2.8812   2.8812   3.0845   3.0845   3.5244   3.5244
     3.7477   3.7477   4.1274   4.1274   4.5135   4.5135   4.7534   4.7534
     4.8878   4.8878   5.5884   5.5884   5.9572   5.9572   6.4767   6.4768
     7.0377   7.0378   8.2862   8.2862   9.7042   9.7042  11.5990  11.5990
    14.1949  14.1950

     occupation numbers 
     1.0000   1.0000   1.0000   1.0000   1.0000   1.0000   1.0000   1.0000
     1.0000   1.0000   1.0000   1.0000   1.0000   1.0000   1.0000   1.0000
     1.0000   1.0000   1.0000   1.0000   1.0000   1.0000   1.0000   1.0000
     1.0000   1.0000   1.0000   1.0000   1.0000   1.0000   1.0000   1.0000
     1.0000   1.0000   1.0000   1.0000   1.0000   1.0000   1.0000   1.0000
     1.0000   1.0000   1.0000   1.0000   1.0000   1.0000   1.0000   1.0000
     0.0000   0.0000   0.0000   0.0000   0.0000   0.0000   0.0000   0.0000
     0.0000   0.0000

          k =-0.5000-0.7071 0.0000 (  3788 PWs)   bands (ev):

   -46.0478 -46.0478 -45.9391 -45.9390 -45.7451 -45.7450 -45.7350 -45.7349
   -45.6977 -45.6977 -45.5729 -45.5729 -45.2700 -45.2699 -44.9595 -44.9594
   -44.8090 -44.8088   0.5099   0.5099   1.6871   1.6872   1.9618   1.9618
     2.7099   2.7099   3.0062   3.0062   3.1777   3.1777   3.4099   3.4099
     3.7787   3.7788   4.4906   4.4907   4.8572   4.8572   5.4807   5.4808
     6.1341   6.1341   6.7821   6.7821   6.8679   6.8679   7.0577   7.0578
     8.0633   8.0633  10.6842  10.6842  12.2002  12.2003  12.2950  12.2950
    12.7756  12.7757

     occupation numbers 
     1.0000   1.0000   1.0000   1.0000   1.0000   1.0000   1.0000   1.0000
     1.0000   1.0000   1.0000   1.0000   1.0000   1.0000   1.0000   1.0000
     1.0000   1.0000   1.0000   1.0000   1.0000   1.0000   1.0000   1.0000
     1.0000   1.0000   1.0000   1.0000   1.0000   1.0000   1.0000   1.0000
     1.0000   1.0000   1.0000   1.0000   1.0000   1.0000   1.0000   1.0000
     1.0000   1.0000   0.9994   0.9994   0.6117   0.6115   0.0000   0.0000
     0.0000   0.0000   0.0000   0.0000   0.0000   0.0000   0.0000   0.0000
     0.0000   0.0000

     the Fermi energy is     6.8760 ev

!    total energy              =   -1263.96026993 Ry
     estimated scf accuracy    <       0.00000009 Ry
     smearing contrib. (-TS)   =      -0.00063798 Ry
     internal energy E=F+TS    =   -1263.95963195 Ry

     The total energy is F=E-TS. E is the sum of the following terms:
     one-electron contribution =   -5147.19638109 Ry
     hartree contribution      =    2607.10845665 Ry
     xc contribution           =    -340.98522783 Ry
     ewald contribution        =    1617.11352031 Ry

     convergence has been achieved in  10 iterations

     negative rho (up, down):  1.052E+00 0.000E+00

     Forces acting on atoms (cartesian axes, Ry/au):

     atom    1 type  1   force =     0.00000000    0.00000000    0.02362326
     atom    2 type  1   force =     0.00000000    0.00000000   -0.00705108
     atom    3 type  1   force =     0.00000000    0.00000000    0.02587987
     atom    4 type  1   force =     0.00000000    0.00000000   -0.02586638
     atom    5 type  1   force =     0.00000000    0.00000000    0.00704090
     atom    6 type  1   force =     0.00000000    0.00000000   -0.02362657
     The non-local contrib.  to forces
     atom    1 type  1   force =     0.00000000    0.00000000   -0.13441057
     atom    2 type  1   force =     0.00000000    0.00000000   -0.00505354
     atom    3 type  1   force =     0.00000000    0.00000000   -0.01418927
     atom    4 type  1   force =     0.00000000    0.00000000    0.01418460
     atom    5 type  1   force =     0.00000000    0.00000000    0.00500681
     atom    6 type  1   force =     0.00000000    0.00000000    0.13440122
     The ionic contribution  to forces
     atom    1 type  1   force =    -0.00000000    0.00000000 -203.70622843
     atom    2 type  1   force =     0.00000000    0.00000000  -43.00462807
     atom    3 type  1   force =    -0.00000000   -0.00000000  133.30282166
     atom    4 type  1   force =     0.00000000    0.00000000 -133.30286083
     atom    5 type  1   force =     0.00000000    0.00000000   43.00449176
     atom    6 type  1   force =    -0.00000000    0.00000000  203.70640390
     The local contribution  to forces
     atom    1 type  1   force =     0.00000000    0.00000000  203.84619329
     atom    2 type  1   force =     0.00000000    0.00000000   43.01107316
     atom    3 type  1   force =     0.00000000    0.00000000 -133.25824449
     atom    4 type  1   force =     0.00000000    0.00000000  133.25884182
     atom    5 type  1   force =     0.00000000    0.00000000  -43.00972230
     atom    6 type  1   force =     0.00000000    0.00000000 -203.84652496
     The core correction contribution to forces
     atom    1 type  1   force =    -0.00000000   -0.00000000    0.01870215
     atom    2 type  1   force =    -0.00000000   -0.00000000   -0.00726278
     atom    3 type  1   force =    -0.00000000   -0.00000000   -0.00472904
     atom    4 type  1   force =    -0.00000000   -0.00000000    0.00472777
     atom    5 type  1   force =    -0.00000000   -0.00000000    0.00726411
     atom    6 type  1   force =     0.00000000   -0.00000000   -0.01870676
     The Hubbard contrib.    to forces
     atom    1 type  1   force =     0.00000000    0.00000000    0.00000000
     atom    2 type  1   force =     0.00000000    0.00000000    0.00000000
     atom    3 type  1   force =     0.00000000    0.00000000    0.00000000
     atom    4 type  1   force =     0.00000000    0.00000000    0.00000000
     atom    5 type  1   force =     0.00000000    0.00000000    0.00000000
     atom    6 type  1   force =     0.00000000    0.00000000    0.00000000
     The SCF correction term to forces
     atom    1 type  1   force =    -0.00000000   -0.00000000   -0.00063998
     atom    2 type  1   force =     0.00000000    0.00000000   -0.00118665
     atom    3 type  1   force =    -0.00000000   -0.00000000    0.00021421
     atom    4 type  1   force =    -0.00000000   -0.00000000   -0.00076656
     atom    5 type  1   force =    -0.00000000   -0.00000000   -0.00000628
     atom    6 type  1   force =     0.00000000    0.00000000    0.00079323

     Total force =     0.050541     Total SCF correction =     0.001755


     Computing stress (Cartesian axis) and pressure


     negative rho (up, down):  1.052E+00 0.000E+00
          total   stress  (Ry/bohr**3)                   (kbar)     P=      -63.21
  -0.00035515   0.00000000   0.00000000          -52.25        0.00        0.00
   0.00000000  -0.00073388   0.00000000            0.00     -107.96        0.00
   0.00000000   0.00000000  -0.00020011            0.00        0.00      -29.44

     kinetic stress (kbar)  24155.57      0.00      0.00
                                0.00  23869.07      0.00
                                0.00      0.00  24365.66

     local   stress (kbar)-513412.63     -0.00     -0.00
                               -0.00-518091.18     -0.00
                               -0.00     -0.00 532902.34

     nonloc. stress (kbar)   -167.51      0.00      0.00
                                0.00   -168.21      0.00
                                0.00      0.00   -137.67

     hartree stress (kbar) 262657.62      0.00      0.00
                                0.00 264505.30      0.00
                                0.00      0.00-251500.43

     exc-cor stress (kbar)  17728.73      0.00     -0.00
                                0.00  17730.15      0.00
                               -0.00      0.00  17725.47

     corecor stress (kbar) -24447.45      0.00      0.00
                                0.00 -24434.11     -0.00
                                0.00     -0.00 -24455.77

     ewald   stress (kbar) 233433.43     -0.00     -0.00
                               -0.00 236481.02      0.00
                               -0.00      0.00-298929.03

     hubbard stress (kbar)      0.00      0.00      0.00
                                0.00      0.00      0.00
                                0.00      0.00      0.00

     DFT-D   stress (kbar)      0.00      0.00      0.00
                                0.00      0.00      0.00
                                0.00      0.00      0.00

     XDM     stress (kbar)      0.00      0.00      0.00
                                0.00      0.00      0.00
                                0.00      0.00      0.00

     dft-nl  stress (kbar)      0.00      0.00      0.00
                                0.00      0.00      0.00
                                0.00      0.00      0.00

     TS-vdW  stress (kbar)      0.00      0.00      0.00
                                0.00      0.00      0.00
                                0.00      0.00      0.00


     Energy error            =      3.7E-03
     Gradient error          =      2.6E-02

     number of scf cycles    =   2
     number of bfgs steps    =   1

     energy   old            =   -1263.9565574624 Ry
     energy   new            =   -1263.9602699293 Ry

     CASE: energy  _new < energy  _old

     new trust radius        =       0.0358913492 bohr
     new conv_thr            =       0.0000002588 Ry


ATOMIC_POSITIONS (angstrom)
Pt            0.0000000000        0.0000000000        0.0327190622
Pt            0.0000000000        0.0000000000        2.7996471711
Pt            0.0000000000        0.0000000000        5.6602548756
Pt            1.9883850000        1.4060000000        1.3697502666
Pt            1.9883850000        1.4060000000        4.2303515813
Pt            1.9883850000        1.4060000000        6.9972770431



     Writing output data file ./surface.save/
     NEW-OLD atomic charge density approx. for the potential

     negative rho (up, down):  1.057E+00 0.000E+00

     total cpu time spent up to now is       19.1 secs

     Self-consistent Calculation

     iteration #  1     ecut=    30.00 Ry     beta= 0.30
     Davidson diagonalization with overlap
     ethr =  1.00E-06,  avg # of iterations =  7.0

     negative rho (up, down):  1.057E+00 0.000E+00

     total cpu time spent up to now is       20.4 secs

     total energy              =   -1263.96280761 Ry
     estimated scf accuracy    <       0.00144345 Ry

     iteration #  2     ecut=    30.00 Ry     beta= 0.30
     Davidson diagonalization with overlap
     ethr =  1.50E-06,  avg # of iterations =  4.8

     negative rho (up, down):  1.057E+00 0.000E+00

     total cpu time spent up to now is       21.1 secs

     total energy              =   -1263.95976719 Ry
     estimated scf accuracy    <       0.23902262 Ry

     iteration #  3     ecut=    30.00 Ry     beta= 0.30
     Davidson diagonalization with overlap
     ethr =  1.50E-06,  avg # of iterations =  4.8

     negative rho (up, down):  1.057E+00 0.000E+00

     total cpu time spent up to now is       21.8 secs

     total energy              =   -1263.96191424 Ry
     estimated scf accuracy    <       0.10414181 Ry

     iteration #  4     ecut=    30.00 Ry     beta= 0.30
     Davidson diagonalization with overlap
     ethr =  1.50E-06,  avg # of iterations =  2.4

     negative rho (up, down):  1.057E+00 0.000E+00

     total cpu time spent up to now is       22.3 secs

     total energy              =   -1263.96321535 Ry
     estimated scf accuracy    <       0.00137015 Ry

     iteration #  5     ecut=    30.00 Ry     beta= 0.30
     Davidson diagonalization with overlap
     ethr =  1.43E-06,  avg # of iterations =  1.1

     negative rho (up, down):  1.057E+00 0.000E+00

     total cpu time spent up to now is       22.8 secs

     total energy              =   -1263.96328001 Ry
     estimated scf accuracy    <       0.00015221 Ry

     iteration #  6     ecut=    30.00 Ry     beta= 0.30
     Davidson diagonalization with overlap
     ethr =  1.59E-07,  avg # of iterations =  1.0

     negative rho (up, down):  1.057E+00 0.000E+00

     total cpu time spent up to now is       23.2 secs

     total energy              =   -1263.96328364 Ry
     estimated scf accuracy    <       0.00002613 Ry

     iteration #  7     ecut=    30.00 Ry     beta= 0.30
     Davidson diagonalization with overlap
     ethr =  2.72E-08,  avg # of iterations =  2.0

     negative rho (up, down):  1.057E+00 0.000E+00

     total cpu time spent up to now is       23.8 secs

     total energy              =   -1263.96328304 Ry
     estimated scf accuracy    <       0.00006014 Ry

     iteration #  8     ecut=    30.00 Ry     beta= 0.30
     Davidson diagonalization with overlap
     ethr =  2.72E-08,  avg # of iterations =  1.2

     negative rho (up, down):  1.057E+00 0.000E+00

     total cpu time spent up to now is       24.3 secs

     total energy              =   -1263.96328710 Ry
     estimated scf accuracy    <       0.00000169 Ry

     iteration #  9     ecut=    30.00 Ry     beta= 0.30
     Davidson diagonalization with overlap
     ethr =  1.76E-09,  avg # of iterations =  2.0

     negative rho (up, down):  1.057E+00 0.000E+00

     total cpu time spent up to now is       24.8 secs

     total energy              =   -1263.96328722 Ry
     estimated scf accuracy    <       0.00000127 Ry

     iteration # 10     ecut=    30.00 Ry     beta= 0.30
     Davidson diagonalization with overlap
     ethr =  1.33E-09,  avg # of iterations =  1.0

     negative rho (up, down):  1.057E+00 0.000E+00

     total cpu time spent up to now is       25.3 secs

     End of self-consistent calculation

          k = 0.0000 0.0000 0.0000 (  3869 PWs)   bands (ev):

   -45.9137 -45.8144 -45.8115 -45.7693 -45.7509 -45.7399 -45.6998 -45.6874
   -45.6794 -45.6221 -45.6044 -45.5594 -45.1097 -45.1096 -45.0131 -45.0130
   -44.8597 -44.8584  -2.2584  -0.7752   0.5991   0.9768   1.1772   1.2622
     1.9302   2.5666   2.8021   2.8420   3.2334   3.4026   3.4501   3.5675
     3.8681   3.8690   4.0633   4.1413   4.7267   4.7657   5.0407   5.0434
     5.2648   5.4421   5.5105   5.7408   6.0747   6.2469   6.5057   6.6299
     6.7331   6.9389   7.2294   7.6539   9.7853  10.1441  11.8365  11.9070
    12.9182  13.7992

     occupation numbers 
     1.0000   1.0000   1.0000   1.0000   1.0000   1.0000   1.0000   1.0000
     1.0000   1.0000   1.0000   1.0000   1.0000   1.0000   1.0000   1.0000
     1.0000   1.0000   1.0000   1.0000   1.0000   1.0000   1.0000   1.0000
     1.0000   1.0000   1.0000   1.0000   1.0000   1.0000   1.0000   1.0000
     1.0000   1.0000   1.0000   1.0000   1.0000   1.0000   1.0000   1.0000
     1.0000   1.0000   1.0000   1.0000   1.0000   1.0000   1.0000   1.0000
     1.0000   0.0248   0.0000   0.0000   0.0000   0.0000   0.0000   0.0000
     0.0000   0.0000

          k = 0.0000 0.3536 0.0000 (  3863 PWs)   bands (ev):

   -45.9151 -45.8827 -45.8599 -45.8239 -45.8045 -45.7801 -45.7216 -45.6995
   -45.6960 -45.6523 -45.5917 -45.5628 -45.2122 -45.2121 -45.0123 -45.0122
   -44.8490 -44.8480  -0.8043   0.3250   1.2308   1.4928   1.7446   1.7850
     2.0065   2.3621   2.3630   2.4501   2.6944   3.1787   3.5868   3.8140
     3.8406   4.1145   4.2096   4.2795   4.7201   4.9166   4.9668   5.2146
     5.3632   5.5526   5.9459   5.9638   6.0779   6.2207   6.3032   6.5244
     6.9566   7.1285   7.1957   8.5590  10.9610  12.9879  13.1148  13.1206
    13.8370  14.4852

     occupation numbers 
     1.0000   1.0000   1.0000   1.0000   1.0000   1.0000   1.0000   1.0000
     1.0000   1.0000   1.0000   1.0000   1.0000   1.0000   1.0000   1.0000
     1.0000   1.0000   1.0000   1.0000   1.0000   1.0000   1.0000   1.0000
     1.0000   1.0000   1.0000   1.0000   1.0000   1.0000   1.0000   1.0000
     1.0000   1.0000   1.0000   1.0000   1.0000   1.0000   1.0000   1.0000
     1.0000   1.0000   1.0000   1.0000   1.0000   1.0000   1.0000   1.0000
     0.0050   0.0000   0.0000   0.0000   0.0000   0.0000   0.0000   0.0000
     0.0000   0.0000

          k = 0.0000-0.7071 0.0000 (  3878 PWs)   bands (ev):

   -45.9970 -45.9967 -45.9267 -45.9266 -45.7499 -45.7496 -45.7184 -45.7182
   -45.6934 -45.6931 -45.5803 -45.5801 -45.3088 -45.3088 -45.0114 -45.0114
   -44.8385 -44.8385   0.6272   0.6273   1.0327   1.0327   1.4596   1.4596
     1.8202   1.8203   2.4222   2.4223   2.9703   2.9704   3.2665   3.2666
     4.4961   4.4961   4.8993   4.8993   5.7227   5.7228   5.9954   5.9955
     6.5888   6.5888   6.6926   6.6927   6.7989   6.7989   7.1592   7.1593
     8.6902   8.6903   9.0799   9.0800   9.2510   9.2511  12.1185  12.1185
    15.6548  15.6549

     occupation numbers 
     1.0000   1.0000   1.0000   1.0000   1.0000   1.0000   1.0000   1.0000
     1.0000   1.0000   1.0000   1.0000   1.0000   1.0000   1.0000   1.0000
     1.0000   1.0000   1.0000   1.0000   1.0000   1.0000   1.0000   1.0000
     1.0000   1.0000   1.0000   1.0000   1.0000   1.0000   1.0000   1.0000
     1.0000   1.0000   1.0000   1.0000   1.0000   1.0000   1.0000   1.0000
     1.0000   1.0000   1.0000   1.0000   0.9981   0.9981   0.0000   0.0000
     0.0000   0.0000   0.0000   0.0000   0.0000   0.0000   0.0000   0.0000
     0.0000   0.0000

          k = 0.2500 0.0000 0.0000 (  3899 PWs)   bands (ev):

   -45.8878 -45.8623 -45.8026 -45.7987 -45.7495 -45.6997 -45.6910 -45.6897
   -45.6848 -45.6387 -45.5796 -45.5715 -45.1114 -45.1113 -45.0164 -45.0161
   -44.8561 -44.8554  -1.5297  -0.3809   0.5780   0.7798   1.2455   1.3629
     1.6679   2.7500   3.0599   3.0677   3.3468   3.4978   3.7499   3.7553
     3.7889   3.8908   4.0274   4.3606   4.4700   4.6106   4.8059   5.1040
     5.2063   5.5528   5.7650   5.8510   5.9895   6.0528   6.5933   6.6153
     6.7761   6.9131   7.0603   7.4305   7.9139   9.5877   9.9752  11.3867
    12.5116  12.7282

     occupation numbers 
     1.0000   1.0000   1.0000   1.0000   1.0000   1.0000   1.0000   1.0000
     1.0000   1.0000   1.0000   1.0000   1.0000   1.0000   1.0000   1.0000
     1.0000   1.0000   1.0000   1.0000   1.0000   1.0000   1.0000   1.0000
     1.0000   1.0000   1.0000   1.0000   1.0000   1.0000   1.0000   1.0000
     1.0000   1.0000   1.0000   1.0000   1.0000   1.0000   1.0000   1.0000
     1.0000   1.0000   1.0000   1.0000   1.0000   1.0000   1.0000   1.0000
     0.9999   0.1430   0.0000   0.0000   0.0000   0.0000   0.0000   0.0000
     0.0000   0.0000

          k = 0.2500 0.3536 0.0000 (  3863 PWs)   bands (ev):

   -45.9311 -45.8829 -45.8549 -45.8274 -45.8126 -45.7856 -45.7461 -45.6835
   -45.6656 -45.6598 -45.5844 -45.5667 -45.2113 -45.2113 -45.0114 -45.0113
   -44.8483 -44.8477  -0.2901   0.8120   1.3858   1.6729   1.8362   2.1575
     2.1948   2.3719   2.4993   2.7951   2.8026   3.2736   3.4684   3.4954
     3.7952   3.8306   4.0297   4.1968   4.6899   4.7852   4.9049   5.0077
     5.0278   5.2032   5.5822   5.7606   6.0129   6.2187   6.6893   6.7523
     6.7711   6.8532   7.7656   9.4022  10.2520  10.8460  12.0045  12.6361
    13.8052  13.8137

     occupation numbers 
     1.0000   1.0000   1.0000   1.0000   1.0000   1.0000   1.0000   1.0000
     1.0000   1.0000   1.0000   1.0000   1.0000   1.0000   1.0000   1.0000
     1.0000   1.0000   1.0000   1.0000   1.0000   1.0000   1.0000   1.0000
     1.0000   1.0000   1.0000   1.0000   1.0000   1.0000   1.0000   1.0000
     1.0000   1.0000   1.0000   1.0000   1.0000   1.0000   1.0000   1.0000
     1.0000   1.0000   1.0000   1.0000   1.0000   1.0000   1.0000   1.0000
     0.9999   0.8434   0.0000   0.0000   0.0000   0.0000   0.0000   0.0000
     0.0000   0.0000

          k = 0.2500-0.7071 0.0000 (  3840 PWs)   bands (ev):

   -46.0083 -46.0081 -45.9369 -45.9368 -45.7326 -45.7324 -45.7201 -45.7199
   -45.7012 -45.7010 -45.5739 -45.5738 -45.3059 -45.3058 -45.0075 -45.0075
   -44.8403 -44.8403   0.8569   0.8570   1.1015   1.1016   1.3707   1.3707
     2.1912   2.1913   2.6173   2.6173   3.4665   3.4665   3.7275   3.7275
     3.9833   3.9834   4.6895   4.6895   5.1847   5.1847   5.6846   5.6846
     5.9894   5.9894   6.4558   6.4559   6.9620   6.9621   7.0604   7.0605
     8.6323   8.6324   9.7258   9.7258  11.1272  11.1272  12.6355  12.6356
    14.0835  14.0839

     occupation numbers 
     1.0000   1.0000   1.0000   1.0000   1.0000   1.0000   1.0000   1.0000
     1.0000   1.0000   1.0000   1.0000   1.0000   1.0000   1.0000   1.0000
     1.0000   1.0000   1.0000   1.0000   1.0000   1.0000   1.0000   1.0000
     1.0000   1.0000   1.0000   1.0000   1.0000   1.0000   1.0000   1.0000
     1.0000   1.0000   1.0000   1.0000   1.0000   1.0000   1.0000   1.0000
     1.0000   1.0000   1.0000   1.0000   0.0029   0.0029   0.0000   0.0000
     0.0000   0.0000   0.0000   0.0000   0.0000   0.0000   0.0000   0.0000
     0.0000   0.0000

          k =-0.5000 0.0000 0.0000 (  3898 PWs)   bands (ev):

   -45.8797 -45.8797 -45.7773 -45.7772 -45.7653 -45.7650 -45.6978 -45.6977
   -45.6270 -45.6269 -45.5832 -45.5831 -45.1131 -45.1131 -45.0189 -45.0189
   -44.8527 -44.8527   0.0849   0.0849   0.2543   0.2544   1.2524   1.2524
     2.2934   2.2936   3.2459   3.2460   3.5006   3.5007   3.5770   3.5770
     3.7433   3.7433   4.2616   4.2617   4.3234   4.3234   5.1491   5.1491
     5.5045   5.5045   6.2032   6.2032   6.3484   6.3485   6.5917   6.5917
     6.7683   6.7683   6.9646   6.9646   7.3076   7.3076   9.0952   9.0952
    13.4232  13.4234

     occupation numbers 
     1.0000   1.0000   1.0000   1.0000   1.0000   1.0000   1.0000   1.0000
     1.0000   1.0000   1.0000   1.0000   1.0000   1.0000   1.0000   1.0000
     1.0000   1.0000   1.0000   1.0000   1.0000   1.0000   1.0000   1.0000
     1.0000   1.0000   1.0000   1.0000   1.0000   1.0000   1.0000   1.0000
     1.0000   1.0000   1.0000   1.0000   1.0000   1.0000   1.0000   1.0000
     1.0000   1.0000   1.0000   1.0000   1.0000   1.0000   1.0000   1.0000
     1.0000   1.0000   0.0022   0.0022   0.0000   0.0000   0.0000   0.0000
     0.0000   0.0000

          k =-0.5000 0.3536 0.0000 (  3860 PWs)   bands (ev):

   -45.9165 -45.9163 -45.8520 -45.8519 -45.7967 -45.7966 -45.7166 -45.7165
   -45.6493 -45.6492 -45.5745 -45.5744 -45.2105 -45.2105 -45.0105 -45.0105
   -44.8474 -44.8474   0.8676   0.8677   1.4821   1.4821   2.1967   2.1967
     2.6599   2.6599   2.8593   2.8594   3.0774   3.0775   3.4835   3.4836
     3.6922   3.6923   4.1429   4.1429   4.5100   4.5101   4.7214   4.7214
     4.8442   4.8442   5.5933   5.5933   5.9491   5.9491   6.4866   6.4867
     7.0426   7.0426   8.2916   8.2916   9.7183   9.7183  11.6203  11.6203
    14.2100  14.2101

     occupation numbers 
     1.0000   1.0000   1.0000   1.0000   1.0000   1.0000   1.0000   1.0000
     1.0000   1.0000   1.0000   1.0000   1.0000   1.0000   1.0000   1.0000
     1.0000   1.0000   1.0000   1.0000   1.0000   1.0000   1.0000   1.0000
     1.0000   1.0000   1.0000   1.0000   1.0000   1.0000   1.0000   1.0000
     1.0000   1.0000   1.0000   1.0000   1.0000   1.0000   1.0000   1.0000
     1.0000   1.0000   1.0000   1.0000   1.0000   1.0000   1.0000   1.0000
     0.0000   0.0000   0.0000   0.0000   0.0000   0.0000   0.0000   0.0000
     0.0000   0.0000

          k =-0.5000-0.7071 0.0000 (  3788 PWs)   bands (ev):

   -46.0249 -46.0246 -45.9365 -45.9364 -45.7298 -45.7297 -45.7249 -45.7245
   -45.6946 -45.6945 -45.5703 -45.5702 -45.3022 -45.3022 -45.0033 -45.0033
   -44.8421 -44.8421   0.5288   0.5288   1.6516   1.6516   1.9774   1.9776
     2.7040   2.7040   2.9456   2.9456   3.1899   3.1899   3.3957   3.3957
     3.7997   3.7998   4.4597   4.4597   4.8392   4.8393   5.4469   5.4470
     6.1078   6.1078   6.7986   6.7987   6.8712   6.8713   7.0571   7.0572
     8.0508   8.0508  10.6490  10.6490  12.2109  12.2109  12.2923  12.2923
    12.7864  12.7865

     occupation numbers 
     1.0000   1.0000   1.0000   1.0000   1.0000   1.0000   1.0000   1.0000
     1.0000   1.0000   1.0000   1.0000   1.0000   1.0000   1.0000   1.0000
     1.0000   1.0000   1.0000   1.0000   1.0000   1.0000   1.0000   1.0000
     1.0000   1.0000   1.0000   1.0000   1.0000   1.0000   1.0000   1.0000
     1.0000   1.0000   1.0000   1.0000   1.0000   1.0000   1.0000   1.0000
     1.0000   1.0000   0.9981   0.9981   0.6497   0.6485   0.0000   0.0000
     0.0000   0.0000   0.0000   0.0000   0.0000   0.0000   0.0000   0.0000
     0.0000   0.0000

     the Fermi energy is     6.8823 ev

!    total energy              =   -1263.96328736 Ry
     estimated scf accuracy    <       0.00000007 Ry
     smearing contrib. (-TS)   =      -0.00061391 Ry
     internal energy E=F+TS    =   -1263.96267345 Ry

     The total energy is F=E-TS. E is the sum of the following terms:
     one-electron contribution =   -5152.97308958 Ry
     hartree contribution      =    2609.97544043 Ry
     xc contribution           =    -340.99906443 Ry
     ewald contribution        =    1620.03404013 Ry

     convergence has been achieved in  10 iterations

     negative rho (up, down):  1.057E+00 0.000E+00

     Forces acting on atoms (cartesian axes, Ry/au):

     atom    1 type  1   force =     0.00000000    0.00000000    0.01728403
     atom    2 type  1   force =     0.00000000    0.00000000   -0.00133088
     atom    3 type  1   force =     0.00000000    0.00000000    0.01873357
     atom    4 type  1   force =     0.00000000    0.00000000   -0.01872439
     atom    5 type  1   force =     0.00000000    0.00000000    0.00132894
     atom    6 type  1   force =     0.00000000    0.00000000   -0.01729126
     The non-local contrib.  to forces
     atom    1 type  1   force =     0.00000000    0.00000000   -0.13628874
     atom    2 type  1   force =     0.00000000    0.00000000   -0.00165346
     atom    3 type  1   force =     0.00000000    0.00000000   -0.02248620
     atom    4 type  1   force =     0.00000000    0.00000000    0.02248505
     atom    5 type  1   force =     0.00000000    0.00000000    0.00163692
     atom    6 type  1   force =     0.00000000    0.00000000    0.13628393
     The ionic contribution  to forces
     atom    1 type  1   force =    -0.00000000    0.00000000 -203.79729855
     atom    2 type  1   force =     0.00000000   -0.00000000  -42.45458643
     atom    3 type  1   force =    -0.00000000   -0.00000000  133.45657912
     atom    4 type  1   force =     0.00000000    0.00000000 -133.45649425
     atom    5 type  1   force =     0.00000000   -0.00000000   42.45451804
     atom    6 type  1   force =     0.00000000   -0.00000000  203.79728208
     The local contribution  to forces
     atom    1 type  1   force =    -0.00000000    0.00000000  203.93166193
     atom    2 type  1   force =     0.00000000   -0.00000000   42.46313547
     atom    3 type  1   force =     0.00000000    0.00000000 -133.41134716
     atom    4 type  1   force =     0.00000000    0.00000000  133.41112110
     atom    5 type  1   force =     0.00000000    0.00000000  -42.46232946
     atom    6 type  1   force =     0.00000000    0.00000000 -203.93188332
     The core correction contribution to forces
     atom    1 type  1   force =     0.00000000   -0.00000000    0.01955060
     atom    2 type  1   force =    -0.00000000    0.00000000   -0.00766853
     atom    3 type  1   force =     0.00000000    0.00000000   -0.00462495
     atom    4 type  1   force =    -0.00000000   -0.00000000    0.00461924
     atom    5 type  1   force =    -0.00000000    0.00000000    0.00767191
     atom    6 type  1   force =    -0.00000000    0.00000000   -0.01955855
     The Hubbard contrib.    to forces
     atom    1 type  1   force =     0.00000000    0.00000000    0.00000000
     atom    2 type  1   force =     0.00000000    0.00000000    0.00000000
     atom    3 type  1   force =     0.00000000    0.00000000    0.00000000
     atom    4 type  1   force =     0.00000000    0.00000000    0.00000000
     atom    5 type  1   force =     0.00000000    0.00000000    0.00000000
     atom    6 type  1   force =     0.00000000    0.00000000    0.00000000
     The SCF correction term to forces
     atom    1 type  1   force =     0.00000000   -0.00000000   -0.00034041
     atom    2 type  1   force =    -0.00000000   -0.00000000   -0.00055714
     atom    3 type  1   force =    -0.00000000   -0.00000000    0.00061356
     atom    4 type  1   force =    -0.00000000    0.00000000   -0.00045473
     atom    5 type  1   force =    -0.00000000    0.00000000   -0.00016767
     atom    6 type  1   force =    -0.00000000   -0.00000000    0.00058541

     Total force =     0.036094     Total SCF correction =     0.001175


     Computing stress (Cartesian axis) and pressure


     negative rho (up, down):  1.057E+00 0.000E+00
          total   stress  (Ry/bohr**3)                   (kbar)     P=      -60.94
  -0.00033151   0.00000000   0.00000000          -48.77        0.00        0.00
   0.00000000  -0.00072067   0.00000000            0.00     -106.01        0.00
   0.00000000   0.00000000  -0.00019054            0.00        0.00      -28.03

     kinetic stress (kbar)  24150.72      0.00      0.00
                                0.00  23872.06      0.00
                                0.00      0.00  24369.68

     local   stress (kbar)-514314.02      0.00      0.00
                                0.00-518770.70      0.00
                                0.00      0.00 533872.15

     nonloc. stress (kbar)   -165.91      0.00      0.00
                                0.00   -168.61      0.00
                                0.00      0.00   -133.90

     hartree stress (kbar) 263065.76     -0.00     -0.00
                               -0.00 264829.66     -0.00
                               -0.00     -0.00-251929.80

     exc-cor stress (kbar)  17728.51      0.00     -0.00
                                0.00  17729.78      0.00
                               -0.00      0.00  17725.02

     corecor stress (kbar) -24447.22      0.00     -0.00
                                0.00 -24434.39     -0.00
                                0.00     -0.00 -24455.85

     ewald   stress (kbar) 233933.38      0.00      0.00
                                0.00 236836.18      0.00
                                0.00      0.00-299475.34

     hubbard stress (kbar)      0.00      0.00      0.00
                                0.00      0.00      0.00
                                0.00      0.00      0.00

     DFT-D   stress (kbar)      0.00      0.00      0.00
                                0.00      0.00      0.00
                                0.00      0.00      0.00

     XDM     stress (kbar)      0.00      0.00      0.00
                                0.00      0.00      0.00
                                0.00      0.00      0.00

     dft-nl  stress (kbar)      0.00      0.00      0.00
                                0.00      0.00      0.00
                                0.00      0.00      0.00

     TS-vdW  stress (kbar)      0.00      0.00      0.00
                                0.00      0.00      0.00
                                0.00      0.00      0.00


     Energy error            =      3.0E-03
     Gradient error          =      1.9E-02

     number of scf cycles    =   3
     number of bfgs steps    =   2

     energy   old            =   -1263.9602699293 Ry
     energy   new            =   -1263.9632873586 Ry

     CASE: energy  _new < energy  _old

     new trust radius        =       0.0538370238 bohr
     new conv_thr            =       0.0000001873 Ry


ATOMIC_POSITIONS (angstrom)
Pt            0.0000000000        0.0000000000        0.0588810397
Pt            0.0000000000        0.0000000000        2.7956493313
Pt            0.0000000000        0.0000000000        5.6887442017
Pt            1.9883850000        1.4060000000        1.3412737147
Pt            1.9883850000        1.4060000000        4.2343453725
Pt            1.9883850000        1.4060000000        6.9711063402



     Writing output data file ./surface.save/
     NEW-OLD atomic charge density approx. for the potential

     negative rho (up, down):  1.058E+00 0.000E+00

     total cpu time spent up to now is       26.4 secs

     Self-consistent Calculation

     iteration #  1     ecut=    30.00 Ry     beta= 0.30
     Davidson diagonalization with overlap
     ethr =  1.00E-06,  avg # of iterations =  7.1

     negative rho (up, down):  1.058E+00 0.000E+00

     total cpu time spent up to now is       27.7 secs

     total energy              =   -1263.96561204 Ry
     estimated scf accuracy    <       0.00178960 Ry

     iteration #  2     ecut=    30.00 Ry     beta= 0.30
     Davidson diagonalization with overlap
     ethr =  1.86E-06,  avg # of iterations =  3.6

     negative rho (up, down):  1.058E+00 0.000E+00

     total cpu time spent up to now is       28.4 secs

     total energy              =   -1263.96433702 Ry
     estimated scf accuracy    <       0.05373930 Ry

     iteration #  3     ecut=    30.00 Ry     beta= 0.30
     Davidson diagonalization with overlap
     ethr =  1.86E-06,  avg # of iterations =  3.8

[...]
     1.0000   1.0000   1.0000   1.0000   1.0000   1.0000   1.0000   1.0000
     0.0002   0.0000   0.0000   0.0000   0.0000   0.0000   0.0000   0.0000
     0.0000   0.0000

          k = 0.0000-0.7071 0.0000 (  3878 PWs)   bands (ev):

   -45.9504 -45.9503 -45.9239 -45.9238 -45.7756 -45.7755 -45.6639 -45.6638
   -45.6567 -45.6566 -45.6075 -45.6075 -45.4173 -45.4172 -45.1868 -45.1866
   -44.9549 -44.9547   0.6298   0.6299   1.0424   1.0425   1.3933   1.3933
     1.7341   1.7342   2.3848   2.3849   2.7174   2.7176   3.0612   3.0613
     4.3774   4.3775   5.0079   5.0079   5.7579   5.7579   5.9312   5.9312
     6.6071   6.6072   6.7353   6.7354   6.7564   6.7564   7.1562   7.1562
     8.6992   8.6993   9.0485   9.0486   9.2801   9.2801  12.2451  12.2452
    15.6903  15.6906

     occupation numbers 
     1.0000   1.0000   1.0000   1.0000   1.0000   1.0000   1.0000   1.0000
     1.0000   1.0000   1.0000   1.0000   1.0000   1.0000   1.0000   1.0000
     1.0000   1.0000   1.0000   1.0000   1.0000   1.0000   1.0000   1.0000
     1.0000   1.0000   1.0000   1.0000   1.0000   1.0000   1.0000   1.0000
     1.0000   1.0000   1.0000   1.0000   1.0000   1.0000   1.0000   1.0000
     1.0000   1.0000   1.0000   1.0000   1.0000   1.0000   0.0000   0.0000
     0.0000   0.0000   0.0000   0.0000   0.0000   0.0000   0.0000   0.0000
     0.0000   0.0000

          k = 0.2500 0.0000 0.0000 (  3899 PWs)   bands (ev):

   -45.8626 -45.8547 -45.8011 -45.7466 -45.7292 -45.7124 -45.6985 -45.6620
   -45.6422 -45.6228 -45.5837 -45.5619 -45.2363 -45.2361 -45.1766 -45.1758
   -44.9720 -44.9709  -1.5080  -0.4837   0.4991   0.7987   1.2011   1.2150
     1.6220   2.6327   2.9294   3.0298   3.2530   3.4998   3.7000   3.7423
     3.8084   3.8778   3.8898   4.2781   4.4716   4.4924   4.9226   5.0501
     5.0601   5.5067   5.6895   5.7822   5.9683   5.9937   6.5561   6.6151
     6.8574   6.9258   7.1119   7.3996   7.8876   9.4904  10.1507  11.4424
    12.5447  12.7662

     occupation numbers 
     1.0000   1.0000   1.0000   1.0000   1.0000   1.0000   1.0000   1.0000
     1.0000   1.0000   1.0000   1.0000   1.0000   1.0000   1.0000   1.0000
     1.0000   1.0000   1.0000   1.0000   1.0000   1.0000   1.0000   1.0000
     1.0000   1.0000   1.0000   1.0000   1.0000   1.0000   1.0000   1.0000
     1.0000   1.0000   1.0000   1.0000   1.0000   1.0000   1.0000   1.0000
     1.0000   1.0000   1.0000   1.0000   1.0000   1.0000   1.0000   1.0000
     0.9732   0.3307   0.0000   0.0000   0.0000   0.0000   0.0000   0.0000
     0.0000   0.0000

          k = 0.2500 0.3536 0.0000 (  3863 PWs)   bands (ev):

   -45.8860 -45.8505 -45.8385 -45.8287 -45.8092 -45.7828 -45.7449 -45.6731
   -45.6286 -45.6219 -45.5807 -45.5798 -45.3307 -45.3306 -45.1754 -45.1752
   -44.9649 -44.9640  -0.2726   0.7044   1.3962   1.6712   1.8830   2.1330
     2.1903   2.2537   2.3784   2.6933   2.7117   3.2158   3.2700   3.3872
     3.6284   3.6322   3.9464   4.2097   4.6215   4.6930   4.9507   4.9788
     4.9848   5.1314   5.5887   5.7885   6.0413   6.2110   6.6510   6.7357
     6.7762   6.9023   7.7883   9.5207  10.2560  10.8613  12.0622  12.6429
    13.8423  13.8747

     occupation numbers 
     1.0000   1.0000   1.0000   1.0000   1.0000   1.0000   1.0000   1.0000
     1.0000   1.0000   1.0000   1.0000   1.0000   1.0000   1.0000   1.0000
     1.0000   1.0000   1.0000   1.0000   1.0000   1.0000   1.0000   1.0000
     1.0000   1.0000   1.0000   1.0000   1.0000   1.0000   1.0000   1.0000
     1.0000   1.0000   1.0000   1.0000   1.0000   1.0000   1.0000   1.0000
     1.0000   1.0000   1.0000   1.0000   1.0000   1.0000   1.0000   1.0000
     1.0000   0.6463   0.0000   0.0000   0.0000   0.0000   0.0000   0.0000
     0.0000   0.0000

          k = 0.2500-0.7071 0.0000 (  3840 PWs)   bands (ev):

   -45.9582 -45.9581 -45.9390 -45.9389 -45.7883 -45.7883 -45.6679 -45.6678
   -45.6445 -45.6444 -45.5921 -45.5920 -45.4139 -45.4138 -45.1775 -45.1774
   -44.9576 -44.9574   0.8915   0.8917   1.0805   1.0807   1.2923   1.2924
     2.0704   2.0705   2.5154   2.5155   3.2937   3.2938   3.6381   3.6382
     3.9683   3.9684   4.6548   4.6548   5.2205   5.2206   5.5123   5.5124
     6.0845   6.0846   6.3902   6.3902   6.9596   6.9596   7.0778   7.0778
     8.6253   8.6253   9.6552   9.6552  11.1247  11.1248  12.6782  12.6782
    14.0969  14.0969

     occupation numbers 
     1.0000   1.0000   1.0000   1.0000   1.0000   1.0000   1.0000   1.0000
     1.0000   1.0000   1.0000   1.0000   1.0000   1.0000   1.0000   1.0000
     1.0000   1.0000   1.0000   1.0000   1.0000   1.0000   1.0000   1.0000
     1.0000   1.0000   1.0000   1.0000   1.0000   1.0000   1.0000   1.0000
     1.0000   1.0000   1.0000   1.0000   1.0000   1.0000   1.0000   1.0000
     1.0000   1.0000   1.0000   1.0000   0.0536   0.0535   0.0000   0.0000
     0.0000   0.0000   0.0000   0.0000   0.0000   0.0000   0.0000   0.0000
     0.0000   0.0000

          k =-0.5000 0.0000 0.0000 (  3898 PWs)   bands (ev):

   -45.8605 -45.8605 -45.7693 -45.7693 -45.7204 -45.7204 -45.6944 -45.6943
   -45.6127 -45.6126 -45.5816 -45.5816 -45.2400 -45.2398 -45.1811 -45.1809
   -44.9667 -44.9665   0.1415   0.1416   0.1903   0.1905   1.1089   1.1091
     2.2412   2.2413   3.1930   3.1931   3.3886   3.3886   3.5869   3.5870
     3.7623   3.7624   4.1013   4.1014   4.1808   4.1808   4.9558   4.9559
     5.5398   5.5399   6.2543   6.2543   6.3635   6.3635   6.6340   6.6340
     6.7507   6.7508   6.9626   6.9626   7.2146   7.2146   9.3034   9.3034
    13.4475  13.4477

     occupation numbers 
     1.0000   1.0000   1.0000   1.0000   1.0000   1.0000   1.0000   1.0000
     1.0000   1.0000   1.0000   1.0000   1.0000   1.0000   1.0000   1.0000
     1.0000   1.0000   1.0000   1.0000   1.0000   1.0000   1.0000   1.0000
     1.0000   1.0000   1.0000   1.0000   1.0000   1.0000   1.0000   1.0000
     1.0000   1.0000   1.0000   1.0000   1.0000   1.0000   1.0000   1.0000
     1.0000   1.0000   1.0000   1.0000   1.0000   1.0000   1.0000   1.0000
     1.0000   1.0000   0.0433   0.0433   0.0000   0.0000   0.0000   0.0000
     0.0000   0.0000

          k =-0.5000 0.3536 0.0000 (  3860 PWs)   bands (ev):

   -45.8697 -45.8697 -45.8504 -45.8504 -45.8002 -45.8002 -45.7085 -45.7085
   -45.6086 -45.6085 -45.5824 -45.5824 -45.3295 -45.3293 -45.1731 -45.1730
   -44.9634 -44.9632   0.8869   0.8869   1.4393   1.4394   2.1263   2.1265
     2.6771   2.6772   2.7923   2.7924   3.0539   3.0540   3.3283   3.3284
     3.4780   3.4781   4.1568   4.1569   4.4804   4.4805   4.5944   4.5945
     4.7309   4.7309   5.6023   5.6024   5.9445   5.9445   6.4852   6.4852
     7.0550   7.0550   8.3048   8.3049   9.7365   9.7365  11.6789  11.6789
    14.2632  14.2633

     occupation numbers 
     1.0000   1.0000   1.0000   1.0000   1.0000   1.0000   1.0000   1.0000
     1.0000   1.0000   1.0000   1.0000   1.0000   1.0000   1.0000   1.0000
     1.0000   1.0000   1.0000   1.0000   1.0000   1.0000   1.0000   1.0000
     1.0000   1.0000   1.0000   1.0000   1.0000   1.0000   1.0000   1.0000
     1.0000   1.0000   1.0000   1.0000   1.0000   1.0000   1.0000   1.0000
     1.0000   1.0000   1.0000   1.0000   1.0000   1.0000   1.0000   1.0000
     0.0000   0.0000   0.0000   0.0000   0.0000   0.0000   0.0000   0.0000
     0.0000   0.0000

          k =-0.5000-0.7071 0.0000 (  3788 PWs)   bands (ev):

   -45.9780 -45.9780 -45.9411 -45.9410 -45.7924 -45.7924 -45.6819 -45.6818
   -45.6285 -45.6284 -45.5813 -45.5812 -45.4088 -45.4087 -45.1681 -45.1679
   -44.9604 -44.9602   0.5454   0.5455   1.5344   1.5344   1.9847   1.9849
     2.6720   2.6720   2.6856   2.6857   3.2211   3.2211   3.3920   3.3920
     3.8029   3.8031   4.3416   4.3417   4.7765   4.7766   5.3800   5.3801
     5.9730   5.9730   6.8097   6.8098   6.8934   6.8934   7.0399   7.0399
     7.9870   7.9870  10.5399  10.5399  12.2432  12.2433  12.3069  12.3069
    12.7883  12.7884

     occupation numbers 
     1.0000   1.0000   1.0000   1.0000   1.0000   1.0000   1.0000   1.0000
     1.0000   1.0000   1.0000   1.0000   1.0000   1.0000   1.0000   1.0000
     1.0000   1.0000   1.0000   1.0000   1.0000   1.0000   1.0000   1.0000
     1.0000   1.0000   1.0000   1.0000   1.0000   1.0000   1.0000   1.0000
     1.0000   1.0000   1.0000   1.0000   1.0000   1.0000   1.0000   1.0000
     1.0000   1.0000   0.9998   0.9998   0.7533   0.7529   0.0000   0.0000
     0.0000   0.0000   0.0000   0.0000   0.0000   0.0000   0.0000   0.0000
     0.0000   0.0000

     the Fermi energy is     6.9131 ev

!    total energy              =   -1263.96719017 Ry
     estimated scf accuracy    <          4.7E-09 Ry
     smearing contrib. (-TS)   =      -0.00095199 Ry
     internal energy E=F+TS    =   -1263.96623818 Ry

     The total energy is F=E-TS. E is the sum of the following terms:
     one-electron contribution =   -5180.46074256 Ry
     hartree contribution      =    2623.59996441 Ry
     xc contribution           =    -341.05434330 Ry
     ewald contribution        =    1633.94888325 Ry

     convergence has been achieved in   9 iterations

     negative rho (up, down):  1.051E+00 0.000E+00

     Forces acting on atoms (cartesian axes, Ry/au):

     atom    1 type  1   force =     0.00000000    0.00000000    0.00045112
     atom    2 type  1   force =     0.00000000    0.00000000    0.00043122
     atom    3 type  1   force =     0.00000000    0.00000000   -0.00093138
     atom    4 type  1   force =     0.00000000    0.00000000    0.00093243
     atom    5 type  1   force =     0.00000000    0.00000000   -0.00044427
     atom    6 type  1   force =     0.00000000    0.00000000   -0.00043912
     The non-local contrib.  to forces
     atom    1 type  1   force =     0.00000000    0.00000000   -0.13832927
     atom    2 type  1   force =     0.00000000    0.00000000   -0.00408877
     atom    3 type  1   force =     0.00000000    0.00000000   -0.05051042
     atom    4 type  1   force =     0.00000000    0.00000000    0.05050821
     atom    5 type  1   force =     0.00000000    0.00000000    0.00407890
     atom    6 type  1   force =     0.00000000    0.00000000    0.13832013
     The ionic contribution  to forces
     atom    1 type  1   force =     0.00000000   -0.00000000 -203.62976159
     atom    2 type  1   force =    -0.00000000   -0.00000000  -40.36652596
     atom    3 type  1   force =    -0.00000000   -0.00000000  135.02010651
     atom    4 type  1   force =     0.00000000    0.00000000 -135.01957609
     atom    5 type  1   force =     0.00000000    0.00000000   40.36398276
     atom    6 type  1   force =     0.00000000    0.00000000  203.63177438
     The local contribution  to forces
     atom    1 type  1   force =     0.00000000    0.00000000  203.74660087
     atom    2 type  1   force =    -0.00000000    0.00000000   40.37885088
     atom    3 type  1   force =     0.00000000    0.00000000 -134.96637537
     atom    4 type  1   force =     0.00000000    0.00000000  134.96598240
     atom    5 type  1   force =    -0.00000000    0.00000000  -40.37652061
     atom    6 type  1   force =    -0.00000000    0.00000000 -203.74830577
     The core correction contribution to forces
     atom    1 type  1   force =    -0.00000000    0.00000000    0.02219331
     atom    2 type  1   force =    -0.00000000    0.00000000   -0.00782673
     atom    3 type  1   force =     0.00000000    0.00000000   -0.00413284
     atom    4 type  1   force =    -0.00000000   -0.00000000    0.00412963
     atom    5 type  1   force =    -0.00000000   -0.00000000    0.00782814
     atom    6 type  1   force =    -0.00000000   -0.00000000   -0.02219711
     The Hubbard contrib.    to forces
     atom    1 type  1   force =     0.00000000    0.00000000    0.00000000
     atom    2 type  1   force =     0.00000000    0.00000000    0.00000000
     atom    3 type  1   force =     0.00000000    0.00000000    0.00000000
     atom    4 type  1   force =     0.00000000    0.00000000    0.00000000
     atom    5 type  1   force =     0.00000000    0.00000000    0.00000000
     atom    6 type  1   force =     0.00000000    0.00000000    0.00000000
     The SCF correction term to forces
     atom    1 type  1   force =    -0.00000000   -0.00000000   -0.00025606
     atom    2 type  1   force =     0.00000000   -0.00000000    0.00001792
     atom    3 type  1   force =     0.00000000   -0.00000000   -0.00002313
     atom    4 type  1   force =    -0.00000000   -0.00000000   -0.00011557
     atom    5 type  1   force =    -0.00000000    0.00000000    0.00018267
     atom    6 type  1   force =     0.00000000    0.00000000   -0.00003462

     Total force =     0.001586     Total SCF correction =     0.000338
     SCF correction compared to forces is large: reduce conv_thr to get better values


     Computing stress (Cartesian axis) and pressure


     negative rho (up, down):  1.051E+00 0.000E+00
          total   stress  (Ry/bohr**3)                   (kbar)     P=      -50.51
  -0.00022594   0.00000000   0.00000000          -33.24        0.00        0.00
   0.00000000  -0.00065349   0.00000000            0.00      -96.13        0.00
   0.00000000   0.00000000  -0.00015075            0.00        0.00      -22.18

     kinetic stress (kbar)  24131.14      0.00      0.00
                                0.00  23891.71      0.00
                                0.00      0.00  24379.97

     local   stress (kbar)-518305.46      0.00      0.00
                                0.00-521950.14     -0.00
                                0.00     -0.00 538135.26

     nonloc. stress (kbar)   -158.82      0.00      0.00
                                0.00   -168.38      0.00
                                0.00      0.00   -119.63

     hartree stress (kbar) 264891.88     -0.00      0.00
                               -0.00 266351.56     -0.00
                                0.00     -0.00-253837.22

     exc-cor stress (kbar)  17727.66     -0.00      0.00
                               -0.00  17728.45     -0.00
                                0.00     -0.00  17723.11

     corecor stress (kbar) -24446.40      0.00      0.00
                                0.00 -24435.92      0.00
                                0.00     -0.00 -24455.83

     ewald   stress (kbar) 236126.77      0.00     -0.00
                                0.00 238486.59     -0.00
                               -0.00     -0.00-301847.85

     hubbard stress (kbar)      0.00      0.00      0.00
                                0.00      0.00      0.00
                                0.00      0.00      0.00

     DFT-D   stress (kbar)      0.00      0.00      0.00
                                0.00      0.00      0.00
                                0.00      0.00      0.00

     XDM     stress (kbar)      0.00      0.00      0.00
                                0.00      0.00      0.00
                                0.00      0.00      0.00

     dft-nl  stress (kbar)      0.00      0.00      0.00
                                0.00      0.00      0.00
                                0.00      0.00      0.00

     TS-vdW  stress (kbar)      0.00      0.00      0.00
                                0.00      0.00      0.00
                                0.00      0.00      0.00


     Energy error            =      1.4E-05
     Gradient error          =      9.3E-04

     bfgs converged in   8 scf cycles and   7 bfgs steps
     (criteria: energy <  1.0E-04 Ry, force <  1.0E-03 Ry/Bohr)

     End of BFGS Geometry Optimization

     Final energy   =   -1263.9671901738 Ry

     File ./surface.bfgs deleted, as requested
Begin final coordinates

ATOMIC_POSITIONS (angstrom)
Pt            0.0000000000        0.0000000000        0.0912761828
Pt            0.0000000000        0.0000000000        2.8130542549
Pt            0.0000000000        0.0000000000        5.7258766816
Pt            1.9883850000        1.4060000000        1.3041142047
Pt            1.9883850000        1.4060000000        4.2170080298
Pt            1.9883850000        1.4060000000        6.9386706462
End final coordinates



     Writing output data file ./surface.save/

     init_run     :      0.42s CPU      0.47s WALL (       1 calls)
     electrons    :     50.32s CPU     51.49s WALL (       8 calls)
     update_pot   :      0.99s CPU      1.00s WALL (       7 calls)
     forces       :      1.74s CPU      1.77s WALL (       8 calls)
     stress       :      5.30s CPU      5.35s WALL (       8 calls)

     Called by init_run:
     wfcinit      :      0.18s CPU      0.19s WALL (       1 calls)
     wfcinit:atom :      0.00s CPU      0.00s WALL (       9 calls)
     wfcinit:wfcr :      0.17s CPU      0.18s WALL (       9 calls)
     potinit      :      0.06s CPU      0.06s WALL (       1 calls)
     hinit0       :      0.11s CPU      0.12s WALL (       1 calls)

     Called by electrons:
     c_bands      :     35.95s CPU     36.57s WALL (      88 calls)
     sum_band     :      9.36s CPU      9.52s WALL (      88 calls)
     v_of_rho     :      1.11s CPU      1.15s WALL (      96 calls)
     v_h          :      0.05s CPU      0.06s WALL (      96 calls)
     v_xc         :      1.23s CPU      1.27s WALL (     112 calls)
     newd         :      3.99s CPU      4.03s WALL (      96 calls)
     mix_rho      :      0.13s CPU      0.14s WALL (      88 calls)

     Called by c_bands:
     init_us_2    :      0.18s CPU      0.19s WALL (    1737 calls)
     cegterg      :     35.21s CPU     35.77s WALL (     792 calls)

     Called by sum_band:
     sum_band:wei :      0.02s CPU      0.02s WALL (      88 calls)
     sum_band:loo :      3.74s CPU      3.82s WALL (      88 calls)
     sum_band:buf :      0.05s CPU      0.05s WALL (     792 calls)
     sum_band:ini :      0.07s CPU      0.07s WALL (     792 calls)
     sum_band:cal :      0.64s CPU      0.65s WALL (     792 calls)
     sum_band:bec :      0.04s CPU      0.04s WALL (     792 calls)
     addusdens    :      3.33s CPU      3.39s WALL (      88 calls)
     addusd:skk   :      0.02s CPU      0.02s WALL (      88 calls)
     addusd:dgemm :      1.58s CPU      1.63s WALL (      88 calls)
     addusd:qvan2 :      1.33s CPU      1.34s WALL (      88 calls)

     Called by *egterg:
     cdiaghg      :     10.11s CPU     10.20s WALL (    2641 calls)
     cegterg:over :      2.67s CPU      2.70s WALL (    1912 calls)
     cegterg:upda :      1.31s CPU      1.32s WALL (    1912 calls)
     cegterg:last :      2.79s CPU      2.81s WALL (    1438 calls)
     cdiaghg:chol :      0.45s CPU      0.46s WALL (    2641 calls)
     cdiaghg:inve :      0.28s CPU      0.29s WALL (    2641 calls)
     cdiaghg:para :      0.95s CPU      0.96s WALL (    5282 calls)
     h_psi        :     16.49s CPU     16.91s WALL (    2713 calls)
     s_psi        :      0.94s CPU      0.96s WALL (    2713 calls)
     g_psi        :      0.04s CPU      0.04s WALL (    1912 calls)

     Called by h_psi:
     h_psi:calbec :      1.71s CPU      1.75s WALL (    2713 calls)
     vloc_psi     :     13.72s CPU     14.09s WALL (    2713 calls)
     add_vuspsi   :      0.99s CPU      1.00s WALL (    2713 calls)

     General routines
     calbec       :      2.68s CPU      2.73s WALL (    3865 calls)
     fft          :      0.82s CPU      0.84s WALL (    1439 calls)
     ffts         :      0.03s CPU      0.03s WALL (     184 calls)
     fftw         :     15.74s CPU     16.16s WALL (  264168 calls)
     interpolate  :      0.07s CPU      0.08s WALL (      96 calls)

     Parallel routines
     fft_scatt_xy :      1.24s CPU      1.28s WALL (  265791 calls)
     fft_scatt_yz :      8.31s CPU      8.53s WALL (  265791 calls)

     PWSCF        :     59.31s CPU   1m 1.56s WALL


   This run was terminated on:   3:52:43  10Dec2021            

=------------------------------------------------------------------------------=
   JOB DONE.
=------------------------------------------------------------------------------=
