
     Program PWSCF v.6.7MaX starts on 10Dec2021 at  3:45:38 

     This program is part of the open-source Quantum ESPRESSO suite
     for quantum simulation of materials; please cite
         "P. Giannozzi et al., J. Phys.:Condens. Matter 21 395502 (2009);
         "P. Giannozzi et al., J. Phys.:Condens. Matter 29 465901 (2017);
          URL http://www.quantum-espresso.org", 
     in publications or presentations arising from this work. More details at
     http://www.quantum-espresso.org/quote

     Parallel version (MPI), running on    16 processors

     MPI processes distributed on     1 nodes
     R & G space division:  proc/nbgrp/npool/nimage =      16
     Reading input from pt_surface.111.qe.7656353.1_1_3.in

     Current dimensions of program PWSCF are:
     Max number of different atomic species (ntypx) = 10
     Max number of k-points (npk) =  40000
     Max angular momentum in pseudopotentials (lmaxx) =  3

     Subspace diagonalization in iterative solution of the eigenvalue problem:
     one sub-group per band group will be used
     scalapack distributed-memory algorithm (size of sub-group:  4*  4 procs)


     Parallelization info
     --------------------
     sticks:   dense  smooth     PW     G-vecs:    dense   smooth      PW
     Min          36      15      4                 7764     1963     340
     Max          37      16      5                 7813     1981     365
     Sum         583     241     73               124561    31523    5573



     bravais-lattice index     =           14
     lattice parameter (alat)  =       5.3139  a.u.
     unit-cell volume          =    1417.0507 (a.u.)^3
     number of atoms/cell      =            9
     number of atomic types    =            1
     number of electrons       =       144.00
     number of Kohn-Sham states=           86
     kinetic-energy cutoff     =      30.0000  Ry
     charge density cutoff     =     300.0000  Ry
     scf convergence threshold =      1.0E-06
     mixing beta               =       0.3000
     number of iterations used =            8  plain     mixing
     energy convergence thresh.=      1.0E-04
     force convergence thresh. =      1.0E-03
     Exchange-correlation=  SLA  PW   PBX  PBC
                           (   1   4   3   4   0   0   0)
     nstep                     =           50


     celldm(1)=   5.313910  celldm(2)=   1.000000  celldm(3)=  10.904662
     celldm(4)=   0.000000  celldm(5)=   0.000000  celldm(6)=  -0.500000

     crystal axes: (cart. coord. in units of alat)
               a(1) = (   1.000000   0.000000   0.000000 )  
               a(2) = (  -0.500000   0.866025   0.000000 )  
               a(3) = (   0.000000   0.000000  10.904662 )  

     reciprocal axes: (cart. coord. in units 2 pi/alat)
               b(1) = (  1.000000  0.577350 -0.000000 )  
               b(2) = (  0.000000  1.154701  0.000000 )  
               b(3) = (  0.000000 -0.000000  0.091704 )  


     PseudoPot. # 1 for Pt read from file:
     /expanse/lustre/projects/csd622/tpascal/nano110/qe/pseudo/pt_pbe_v1.4.uspp.F.UPF
     MD5 check sum: f09d6de1a584b5a045c4fc126da2d0c4
     Pseudo is Ultrasoft + core correction, Zval = 16.0
     Generated by new atomic code, or converted to UPF format
     Using radial grid of  985 points,  6 beta functions with: 
                l(1) =   0
                l(2) =   0
                l(3) =   1
                l(4) =   1
                l(5) =   2
                l(6) =   2
     Q(r) pseudized with  8 coefficients,  rinner =    1.300   1.300   1.300
                                                       1.300   1.300

     atomic species   valence    mass     pseudopotential
        Pt            16.00   195.08400     Pt( 1.00)

     No symmetry found


                                    s                        frac. trans.

      isym =  1     identity                                     

 cryst.   s( 1) = (     1          0          0      )
                  (     0          1          0      )
                  (     0          0          1      )

 cart.    s( 1) = (  1.0000000  0.0000000  0.0000000 )
                  (  0.0000000  1.0000000  0.0000000 )
                  (  0.0000000  0.0000000  1.0000000 )


     point group C_1 (1)    
     there are  1 classes
     the character table:

       E    
A      1.00

     the symmetry operations in each class and the name of the first element:

     E        1
          identity                                               

   Cartesian axes

     site n.     atom                  positions (alat units)
         1           Pt  tau(   1) = (   0.3333329   0.6666671   1.6329950  )
         2           Pt  tau(   2) = (   0.3333329   0.6666671   4.0824865  )
         3           Pt  tau(   3) = (   0.3333329   0.6666671   6.5319780  )
         4           Pt  tau(   4) = (   0.0000000   0.0000000   0.0000000  )
         5           Pt  tau(   5) = (   0.0000000   0.0000000   2.4494915  )
         6           Pt  tau(   6) = (   0.0000000   0.0000000   4.8989829  )
         7           Pt  tau(   7) = (   0.6666671   0.3333329   0.8164964  )
         8           Pt  tau(   8) = (   0.6666671   0.3333329   3.2659879  )
         9           Pt  tau(   9) = (   0.6666671   0.3333329   5.7154794  )

   Crystallographic axes

     site n.     atom                  positions (cryst. coord.)
         1           Pt  tau(   1) = (  0.7182333  0.7698009  0.1497520  )
         2           Pt  tau(   2) = (  0.7182333  0.7698009  0.3743799  )
         3           Pt  tau(   3) = (  0.7182333  0.7698009  0.5990078  )
         4           Pt  tau(   4) = (  0.0000000  0.0000000  0.0000000  )
         5           Pt  tau(   5) = (  0.0000000  0.0000000  0.2246279  )
         6           Pt  tau(   6) = (  0.0000000  0.0000000  0.4492558  )
         7           Pt  tau(   7) = (  0.8591170  0.3848996  0.0748759  )
         8           Pt  tau(   8) = (  0.8591170  0.3848996  0.2995038  )
         9           Pt  tau(   9) = (  0.8591170  0.3848996  0.5241317  )

     number of k points=    10  Gaussian smearing, width (Ry)=  0.0030
                       cart. coord. in units 2pi/alat
        k(    1) = (   0.0000000   0.0000000   0.0000000), wk =   0.1250000
        k(    2) = (   0.0000000   0.2886751   0.0000000), wk =   0.2500000
        k(    3) = (   0.0000000  -0.5773503   0.0000000), wk =   0.1250000
        k(    4) = (   0.2500000   0.4330127   0.0000000), wk =   0.2500000
        k(    5) = (  -0.2500000   0.1443376   0.0000000), wk =   0.2500000
        k(    6) = (   0.2500000   0.1443376   0.0000000), wk =   0.2500000
        k(    7) = (   0.5000000  -0.2886751   0.0000000), wk =   0.1250000
        k(    8) = (  -0.5000000  -0.2886751   0.0000000), wk =   0.1250000
        k(    9) = (  -0.2500000   0.4330127   0.0000000), wk =   0.2500000
        k(   10) = (   0.5000000   0.0000000   0.0000000), wk =   0.2500000

                       cryst. coord.
        k(    1) = (   0.0000000   0.0000000   0.0000000), wk =   0.1250000
        k(    2) = (   0.0000000   0.2500000   0.0000000), wk =   0.2500000
        k(    3) = (   0.0000000  -0.5000000   0.0000000), wk =   0.1250000
        k(    4) = (   0.2500000   0.2500000   0.0000000), wk =   0.2500000
        k(    5) = (  -0.2500000   0.2500000   0.0000000), wk =   0.2500000
        k(    6) = (   0.2500000   0.0000000   0.0000000), wk =   0.2500000
        k(    7) = (   0.5000000  -0.5000000   0.0000000), wk =   0.1250000
        k(    8) = (  -0.5000000   0.0000000   0.0000000), wk =   0.1250000
        k(    9) = (  -0.2500000   0.5000000   0.0000000), wk =   0.2500000
        k(   10) = (   0.5000000  -0.2500000   0.0000000), wk =   0.2500000

     Dense  grid:   124561 G-vectors     FFT dimensions: (  30,  30, 320)

     Smooth grid:    31523 G-vectors     FFT dimensions: (  20,  20, 216)

     Dynamical RAM for                 wfc:       0.32 MB

     Dynamical RAM for     wfc (w. buffer):       3.54 MB

     Dynamical RAM for           str. fact:       0.12 MB

     Dynamical RAM for           local pot:       0.00 MB

     Dynamical RAM for          nlocal pot:       0.61 MB

     Dynamical RAM for                qrad:       1.39 MB

     Dynamical RAM for          rho,v,vnew:       0.77 MB

     Dynamical RAM for               rhoin:       0.26 MB

     Dynamical RAM for            rho*nmix:       1.90 MB

     Dynamical RAM for           G-vectors:       0.46 MB

     Dynamical RAM for          h,s,v(r/c):       0.08 MB

     Dynamical RAM for          <psi|beta>:       0.21 MB

     Dynamical RAM for                 psi:       0.64 MB

     Dynamical RAM for                hpsi:       0.64 MB

     Dynamical RAM for                spsi:       0.64 MB

     Dynamical RAM for      wfcinit/wfcrot:       1.08 MB

     Dynamical RAM for           addusdens:      23.11 MB

     Dynamical RAM for          addusforce:      25.10 MB

     Dynamical RAM for         addusstress:      23.82 MB

     Estimated static dynamical RAM per process >       9.95 MB

     Estimated max dynamical RAM per process >      35.05 MB

     Estimated total dynamical RAM >     560.83 MB

     Initial potential from superposition of free atoms

     starting charge  139.49990, renormalised to  144.00000

     negative rho (up, down):  1.712E+00 0.000E+00
     Starting wfcs are  108 randomized atomic wfcs

     total cpu time spent up to now is        0.6 secs

     Self-consistent Calculation

     iteration #  1     ecut=    30.00 Ry     beta= 0.30
     Davidson diagonalization with overlap
     ethr =  1.00E-02,  avg # of iterations =  3.7

     negative rho (up, down):  1.635E+00 0.000E+00

     total cpu time spent up to now is        1.6 secs

     total energy              =   -1889.69227013 Ry
     estimated scf accuracy    <      20.02122037 Ry

     iteration #  2     ecut=    30.00 Ry     beta= 0.30
     Davidson diagonalization with overlap
     ethr =  1.00E-02,  avg # of iterations =  8.2

     negative rho (up, down):  1.633E+00 0.000E+00

     total cpu time spent up to now is        3.3 secs

     total energy              =   -1866.26267822 Ry
     estimated scf accuracy    <    2553.70006020 Ry

     iteration #  3     ecut=    30.00 Ry     beta= 0.30
     Davidson diagonalization with overlap
     ethr =  1.00E-02,  avg # of iterations =  8.1

     negative rho (up, down):  1.628E+00 0.000E+00

     total cpu time spent up to now is        4.9 secs

     total energy              =   -1891.94835699 Ry
     estimated scf accuracy    <      82.12791819 Ry

     iteration #  4     ecut=    30.00 Ry     beta= 0.30
     Davidson diagonalization with overlap
     ethr =  1.00E-02,  avg # of iterations =  3.6

     negative rho (up, down):  1.613E+00 0.000E+00

     total cpu time spent up to now is        5.9 secs

     total energy              =   -1894.80664609 Ry
     estimated scf accuracy    <      18.25199351 Ry

     iteration #  5     ecut=    30.00 Ry     beta= 0.30
     Davidson diagonalization with overlap
     ethr =  1.00E-02,  avg # of iterations =  2.1

     negative rho (up, down):  1.611E+00 0.000E+00

     total cpu time spent up to now is        6.7 secs

     total energy              =   -1894.25624563 Ry
     estimated scf accuracy    <      57.75455696 Ry

     iteration #  6     ecut=    30.00 Ry     beta= 0.30
     Davidson diagonalization with overlap
     ethr =  1.00E-02,  avg # of iterations =  3.1

     negative rho (up, down):  1.602E+00 0.000E+00

     total cpu time spent up to now is        7.6 secs

     total energy              =   -1893.25470673 Ry
     estimated scf accuracy    <     412.45719950 Ry

     iteration #  7     ecut=    30.00 Ry     beta= 0.30
     Davidson diagonalization with overlap
     ethr =  1.00E-02,  avg # of iterations =  1.8

     negative rho (up, down):  1.598E+00 0.000E+00

     total cpu time spent up to now is        8.4 secs

     total energy              =   -1895.99819594 Ry
     estimated scf accuracy    <       4.94727825 Ry

     iteration #  8     ecut=    30.00 Ry     beta= 0.30
     Davidson diagonalization with overlap
     ethr =  3.44E-03,  avg # of iterations =  2.2

     negative rho (up, down):  1.594E+00 0.000E+00

     total cpu time spent up to now is        9.2 secs

     total energy              =   -1896.07492408 Ry
     estimated scf accuracy    <       4.22057820 Ry

     iteration #  9     ecut=    30.00 Ry     beta= 0.30
     Davidson diagonalization with overlap
     ethr =  2.93E-03,  avg # of iterations =  1.3

     negative rho (up, down):  1.592E+00 0.000E+00

     total cpu time spent up to now is       10.0 secs

     total energy              =   -1896.08686572 Ry
     estimated scf accuracy    <       6.73787461 Ry

     iteration # 10     ecut=    30.00 Ry     beta= 0.30
     Davidson diagonalization with overlap
     ethr =  2.93E-03,  avg # of iterations =  1.0

     negative rho (up, down):  1.590E+00 0.000E+00

     total cpu time spent up to now is       10.7 secs

     total energy              =   -1896.10886483 Ry
     estimated scf accuracy    <       0.31800135 Ry

     iteration # 11     ecut=    30.00 Ry     beta= 0.30
     Davidson diagonalization with overlap
     ethr =  2.21E-04,  avg # of iterations =  5.3

     negative rho (up, down):  1.589E+00 0.000E+00

     total cpu time spent up to now is       11.7 secs

     total energy              =   -1896.09939652 Ry
     estimated scf accuracy    <       2.91794662 Ry

     iteration # 12     ecut=    30.00 Ry     beta= 0.30
     Davidson diagonalization with overlap
     ethr =  2.21E-04,  avg # of iterations =  3.2

     negative rho (up, down):  1.587E+00 0.000E+00

     total cpu time spent up to now is       12.6 secs

     total energy              =   -1896.10005730 Ry
     estimated scf accuracy    <       1.61554785 Ry

     iteration # 13     ecut=    30.00 Ry     beta= 0.30
     Davidson diagonalization with overlap
     ethr =  2.21E-04,  avg # of iterations =  1.1

     negative rho (up, down):  1.586E+00 0.000E+00

     total cpu time spent up to now is       13.3 secs

     total energy              =   -1896.11752745 Ry
     estimated scf accuracy    <       0.37706282 Ry

     iteration # 14     ecut=    30.00 Ry     beta= 0.30
     Davidson diagonalization with overlap
     ethr =  2.21E-04,  avg # of iterations =  1.0

     negative rho (up, down):  1.585E+00 0.000E+00

     total cpu time spent up to now is       14.0 secs

     total energy              =   -1896.11486047 Ry
     estimated scf accuracy    <       0.38949259 Ry

     iteration # 15     ecut=    30.00 Ry     beta= 0.30
     Davidson diagonalization with overlap
     ethr =  2.21E-04,  avg # of iterations =  1.0

     negative rho (up, down):  1.585E+00 0.000E+00

     total cpu time spent up to now is       14.7 secs

     total energy              =   -1896.11022169 Ry
     estimated scf accuracy    <       0.77654672 Ry

     iteration # 16     ecut=    30.00 Ry     beta= 0.30
     Davidson diagonalization with overlap
     ethr =  2.21E-04,  avg # of iterations =  1.1

     negative rho (up, down):  1.584E+00 0.000E+00

     total cpu time spent up to now is       15.5 secs

     total energy              =   -1896.11415251 Ry
     estimated scf accuracy    <       0.87765338 Ry

     iteration # 17     ecut=    30.00 Ry     beta= 0.30
     Davidson diagonalization with overlap
     ethr =  2.21E-04,  avg # of iterations =  1.0

     negative rho (up, down):  1.583E+00 0.000E+00

     total cpu time spent up to now is       16.2 secs

     total energy              =   -1896.11708410 Ry
     estimated scf accuracy    <       0.08869917 Ry

     iteration # 18     ecut=    30.00 Ry     beta= 0.30
     Davidson diagonalization with overlap
     ethr =  6.16E-05,  avg # of iterations =  1.3

     negative rho (up, down):  1.583E+00 0.000E+00

     total cpu time spent up to now is       16.9 secs

     total energy              =   -1896.11649731 Ry
     estimated scf accuracy    <       0.16613678 Ry

     iteration # 19     ecut=    30.00 Ry     beta= 0.30
     Davidson diagonalization with overlap
     ethr =  6.16E-05,  avg # of iterations =  1.0

     negative rho (up, down):  1.584E+00 0.000E+00

     total cpu time spent up to now is       17.6 secs

     total energy              =   -1896.11794679 Ry
     estimated scf accuracy    <       0.15141715 Ry

     iteration # 20     ecut=    30.00 Ry     beta= 0.30
     Davidson diagonalization with overlap
     ethr =  6.16E-05,  avg # of iterations =  1.1

     negative rho (up, down):  1.583E+00 0.000E+00

     total cpu time spent up to now is       18.3 secs

     total energy              =   -1896.11832320 Ry
     estimated scf accuracy    <       0.01920985 Ry

     iteration # 21     ecut=    30.00 Ry     beta= 0.30
     Davidson diagonalization with overlap
     ethr =  1.33E-05,  avg # of iterations =  3.0

     negative rho (up, down):  1.582E+00 0.000E+00

     total cpu time spent up to now is       19.1 secs

     total energy              =   -1896.11858083 Ry
     estimated scf accuracy    <       0.01768094 Ry

     iteration # 22     ecut=    30.00 Ry     beta= 0.30
     Davidson diagonalization with overlap
     ethr =  1.23E-05,  avg # of iterations =  1.2

     negative rho (up, down):  1.583E+00 0.000E+00

     total cpu time spent up to now is       19.8 secs

     total energy              =   -1896.11784037 Ry
     estimated scf accuracy    <       0.02205838 Ry

     iteration # 23     ecut=    30.00 Ry     beta= 0.30
     Davidson diagonalization with overlap
     ethr =  1.23E-05,  avg # of iterations =  3.2

     negative rho (up, down):  1.583E+00 0.000E+00

     total cpu time spent up to now is       20.7 secs

     total energy              =   -1896.11426915 Ry
     estimated scf accuracy    <       0.73344521 Ry

     iteration # 24     ecut=    30.00 Ry     beta= 0.30
     Davidson diagonalization with overlap
     ethr =  1.23E-05,  avg # of iterations =  1.1

     negative rho (up, down):  1.582E+00 0.000E+00

     total cpu time spent up to now is       21.4 secs

     total energy              =   -1896.11866407 Ry
     estimated scf accuracy    <       0.00236857 Ry

     iteration # 25     ecut=    30.00 Ry     beta= 0.30
     Davidson diagonalization with overlap
     ethr =  1.64E-06,  avg # of iterations =  2.8

     negative rho (up, down):  1.582E+00 0.000E+00

     total cpu time spent up to now is       22.2 secs

     total energy              =   -1896.11862916 Ry
     estimated scf accuracy    <       0.00165134 Ry

     iteration # 26     ecut=    30.00 Ry     beta= 0.30
     Davidson diagonalization with overlap
     ethr =  1.15E-06,  avg # of iterations =  1.8

     negative rho (up, down):  1.582E+00 0.000E+00

     total cpu time spent up to now is       22.9 secs

     total energy              =   -1896.11837591 Ry
     estimated scf accuracy    <       0.02727780 Ry

     iteration # 27     ecut=    30.00 Ry     beta= 0.30
     Davidson diagonalization with overlap
     ethr =  1.15E-06,  avg # of iterations =  3.6

     negative rho (up, down):  1.582E+00 0.000E+00

     total cpu time spent up to now is       23.8 secs

     total energy              =   -1896.11824929 Ry
     estimated scf accuracy    <       0.11817941 Ry

     iteration # 28     ecut=    30.00 Ry     beta= 0.30
     Davidson diagonalization with overlap
     ethr =  1.15E-06,  avg # of iterations =  2.6

     negative rho (up, down):  1.582E+00 0.000E+00

     total cpu time spent up to now is       24.6 secs

     total energy              =   -1896.11868129 Ry
     estimated scf accuracy    <       0.00394514 Ry

     iteration # 29     ecut=    30.00 Ry     beta= 0.30
     Davidson diagonalization with overlap
     ethr =  1.15E-06,  avg # of iterations =  1.0

     negative rho (up, down):  1.582E+00 0.000E+00

     total cpu time spent up to now is       25.2 secs

     total energy              =   -1896.11868683 Ry
     estimated scf accuracy    <       0.00490600 Ry

     iteration # 30     ecut=    30.00 Ry     beta= 0.30
     Davidson diagonalization with overlap
     ethr =  1.15E-06,  avg # of iterations =  1.4

     negative rho (up, down):  1.582E+00 0.000E+00

     total cpu time spent up to now is       25.9 secs

     total energy              =   -1896.11864337 Ry
     estimated scf accuracy    <       0.00327182 Ry

     iteration # 31     ecut=    30.00 Ry     beta= 0.30
     Davidson diagonalization with overlap
     ethr =  1.15E-06,  avg # of iterations =  1.4

     negative rho (up, down):  1.582E+00 0.000E+00

     total cpu time spent up to now is       26.7 secs

     total energy              =   -1896.11872344 Ry
     estimated scf accuracy    <       0.00059610 Ry

     iteration # 32     ecut=    30.00 Ry     beta= 0.30
     Davidson diagonalization with overlap
     ethr =  4.14E-07,  avg # of iterations =  1.1

     negative rho (up, down):  1.582E+00 0.000E+00

     total cpu time spent up to now is       27.4 secs

     total energy              =   -1896.11873093 Ry
     estimated scf accuracy    <       0.00021857 Ry

     iteration # 33     ecut=    30.00 Ry     beta= 0.30
     Davidson diagonalization with overlap
     ethr =  1.52E-07,  avg # of iterations =  1.6

     negative rho (up, down):  1.582E+00 0.000E+00

     total cpu time spent up to now is       28.1 secs

     total energy              =   -1896.11872821 Ry
     estimated scf accuracy    <       0.00015235 Ry

     iteration # 34     ecut=    30.00 Ry     beta= 0.30
     Davidson diagonalization with overlap
     ethr =  1.06E-07,  avg # of iterations =  1.5

     negative rho (up, down):  1.582E+00 0.000E+00

     total cpu time spent up to now is       28.9 secs

     total energy              =   -1896.11871344 Ry
     estimated scf accuracy    <       0.00141473 Ry

     iteration # 35     ecut=    30.00 Ry     beta= 0.30
     Davidson diagonalization with overlap
     ethr =  1.06E-07,  avg # of iterations =  1.1

     negative rho (up, down):  1.582E+00 0.000E+00

     total cpu time spent up to now is       29.6 secs

     total energy              =   -1896.11873409 Ry
     estimated scf accuracy    <       0.00003531 Ry

     iteration # 36     ecut=    30.00 Ry     beta= 0.30
     Davidson diagonalization with overlap
     ethr =  2.45E-08,  avg # of iterations =  1.0

     negative rho (up, down):  1.582E+00 0.000E+00

     total cpu time spent up to now is       30.3 secs

     total energy              =   -1896.11873360 Ry
     estimated scf accuracy    <       0.00008337 Ry

     iteration # 37     ecut=    30.00 Ry     beta= 0.30
     Davidson diagonalization with overlap
     ethr =  2.45E-08,  avg # of iterations =  1.0

     negative rho (up, down):  1.582E+00 0.000E+00

     total cpu time spent up to now is       31.0 secs

     total energy              =   -1896.11873389 Ry
     estimated scf accuracy    <       0.00005325 Ry

     iteration # 38     ecut=    30.00 Ry     beta= 0.30
     Davidson diagonalization with overlap
     ethr =  2.45E-08,  avg # of iterations =  1.0

     negative rho (up, down):  1.582E+00 0.000E+00

     total cpu time spent up to now is       31.7 secs

     total energy              =   -1896.11873338 Ry
     estimated scf accuracy    <       0.00012535 Ry

     iteration # 39     ecut=    30.00 Ry     beta= 0.30
     Davidson diagonalization with overlap
     ethr =  2.45E-08,  avg # of iterations =  1.0

     negative rho (up, down):  1.582E+00 0.000E+00

     total cpu time spent up to now is       32.4 secs

     total energy              =   -1896.11873415 Ry
     estimated scf accuracy    <       0.00004608 Ry

     iteration # 40     ecut=    30.00 Ry     beta= 0.30
     Davidson diagonalization with overlap
     ethr =  2.45E-08,  avg # of iterations =  1.0

     negative rho (up, down):  1.582E+00 0.000E+00

     total cpu time spent up to now is       33.1 secs

     total energy              =   -1896.11873422 Ry
     estimated scf accuracy    <       0.00001313 Ry

     iteration # 41     ecut=    30.00 Ry     beta= 0.30
     Davidson diagonalization with overlap
     ethr =  9.12E-09,  avg # of iterations =  1.0

     negative rho (up, down):  1.582E+00 0.000E+00

     total cpu time spent up to now is       33.8 secs

     total energy              =   -1896.11873393 Ry
     estimated scf accuracy    <       0.00015735 Ry

     iteration # 42     ecut=    30.00 Ry     beta= 0.30
     Davidson diagonalization with overlap
     ethr =  9.12E-09,  avg # of iterations =  1.0

     negative rho (up, down):  1.582E+00 0.000E+00

     total cpu time spent up to now is       34.5 secs

     total energy              =   -1896.11873470 Ry
     estimated scf accuracy    <       0.00000731 Ry

     iteration # 43     ecut=    30.00 Ry     beta= 0.30
     Davidson diagonalization with overlap
     ethr =  5.07E-09,  avg # of iterations =  1.0

     negative rho (up, down):  1.582E+00 0.000E+00

     total cpu time spent up to now is       35.2 secs

     End of self-consistent calculation

          k = 0.0000 0.0000 0.0000 (  3941 PWs)   bands (ev):

   -40.4723 -40.4538 -40.0788 -40.0285 -39.9596 -39.9566 -39.9526 -39.9075
   -39.9036 -39.8627 -39.8599 -39.8560 -39.8538 -39.8331 -39.8215 -39.8060
   -39.8055 -39.7791 -39.7754 -39.7668 -39.7148 -39.6883 -39.6879 -39.6432
   -39.6429 -39.4075 -39.4074   2.9721   3.2939   3.8088   4.4286   5.0070
     5.5461   5.7055   5.8484   5.8973   7.5299   7.6964   8.2643   8.4433
     8.7297   9.0485   9.0683   9.0830   9.2365   9.2822   9.2850   9.3584
     9.3588   9.4435   9.4484   9.4943   9.4988   9.5412   9.5827   9.6020
     9.7749   9.8003   9.9396   9.9758  10.0264  10.2663  10.3875  10.6057
    10.9894  11.2828  11.2836  11.5289  11.5463  11.5677  11.6102  11.6640
    11.8311  11.8510  11.8576  12.0340  12.0348  12.5785  12.8612  12.8938
    13.0157  13.0233  17.5888  18.2568  19.1706  20.1630

     occupation numbers 
     1.0000   1.0000   1.0000   1.0000   1.0000   1.0000   1.0000   1.0000
     1.0000   1.0000   1.0000   1.0000   1.0000   1.0000   1.0000   1.0000
     1.0000   1.0000   1.0000   1.0000   1.0000   1.0000   1.0000   1.0000
     1.0000   1.0000   1.0000   1.0000   1.0000   1.0000   1.0000   1.0000
     1.0000   1.0000   1.0000   1.0000   1.0000   1.0000   1.0000   1.0000
     1.0000   1.0000   1.0000   1.0000   1.0000   1.0000   1.0000   1.0000
     1.0000   1.0000   1.0000   1.0000   1.0000   1.0000   1.0000   1.0000
     1.0000   1.0000   1.0000   1.0000   1.0000   1.0000   1.0000   1.0000
     1.0000   1.0000   1.0000   1.0000   1.0000   1.0000   1.0000   1.0000
     1.0000   1.0000   1.0000   1.0000   1.0000   1.0000   0.0012   0.0000
     0.0000   0.0000   0.0000   0.0000   0.0000   0.0000

          k = 0.0000 0.2887 0.0000 (  3966 PWs)   bands (ev):

   -40.4572 -40.4455 -40.1361 -40.1169 -40.0589 -40.0473 -40.0295 -40.0145
   -40.0022 -39.9427 -39.9353 -39.9246 -39.9219 -39.9073 -39.8738 -39.8722
   -39.8524 -39.8367 -39.8366 -39.8251 -39.7718 -39.7666 -39.7308 -39.6947
   -39.6944 -39.3986 -39.3984   4.8049   5.0548   5.4946   5.9175   6.3777
     6.8934   7.0824   7.1300   7.2277   7.5245   7.5912   7.6581   7.8826
     8.0850   8.1587   8.3113   8.3878   8.5003   8.6246   8.7305   8.8678
     9.1283   9.2077   9.3983   9.4606   9.6972   9.7420  10.1700  10.4008
    10.6132  10.6454  10.7046  10.7466  10.7766  10.8287  10.8819  10.9874
    11.0094  11.0671  11.0861  11.2049  11.2995  11.3178  11.3966  11.6698
    11.7485  11.8580  12.0031  12.2830  12.7342  13.4151  13.8771  15.2858
    16.4651  17.3820  18.8880  19.5418  19.9272  21.3074

     occupation numbers 
     1.0000   1.0000   1.0000   1.0000   1.0000   1.0000   1.0000   1.0000
     1.0000   1.0000   1.0000   1.0000   1.0000   1.0000   1.0000   1.0000
     1.0000   1.0000   1.0000   1.0000   1.0000   1.0000   1.0000   1.0000
     1.0000   1.0000   1.0000   1.0000   1.0000   1.0000   1.0000   1.0000
     1.0000   1.0000   1.0000   1.0000   1.0000   1.0000   1.0000   1.0000
     1.0000   1.0000   1.0000   1.0000   1.0000   1.0000   1.0000   1.0000
     1.0000   1.0000   1.0000   1.0000   1.0000   1.0000   1.0000   1.0000
     1.0000   1.0000   1.0000   1.0000   1.0000   1.0000   1.0000   1.0000
     1.0000   1.0000   1.0000   1.0000   1.0000   1.0000   1.0000   1.0000
     1.0000   1.0000   1.0000   1.0000   0.9147   0.0000   0.0000   0.0000
     0.0000   0.0000   0.0000   0.0000   0.0000   0.0000

          k = 0.0000-0.5774 0.0000 (  3940 PWs)   bands (ev):

   -40.4696 -40.4550 -40.2673 -40.2544 -40.1929 -40.1656 -40.1589 -40.1114
   -40.1024 -40.0227 -40.0225 -39.9782 -39.9759 -39.9330 -39.9279 -39.9150
   -39.9062 -39.8863 -39.8633 -39.8367 -39.7887 -39.7886 -39.7635 -39.7295
   -39.7293 -39.3913 -39.3911   5.7534   5.9770   6.0239   6.1917   6.3702
     6.5123   6.5973   6.8341   6.8799   7.0230   7.0697   7.1286   7.4498
     7.6406   7.6486   7.7812   8.1890   8.2170   9.0563   9.0880   9.8847
     9.8927  10.5614  10.5696  10.7122  10.8381  10.8941  11.0909  11.1591
    11.3061  11.5854  11.7740  12.2453  12.3236  12.5006  12.6900  12.6907
    12.7110  12.7626  12.7980  12.8364  12.8610  12.9512  12.9758  13.0010
    13.3139  13.9566  14.6184  14.8124  15.0352  15.0916  15.2286  15.6483
    15.8025  17.9076  18.0616  18.3446  18.3616  19.5489

     occupation numbers 
     1.0000   1.0000   1.0000   1.0000   1.0000   1.0000   1.0000   1.0000
     1.0000   1.0000   1.0000   1.0000   1.0000   1.0000   1.0000   1.0000
     1.0000   1.0000   1.0000   1.0000   1.0000   1.0000   1.0000   1.0000
     1.0000   1.0000   1.0000   1.0000   1.0000   1.0000   1.0000   1.0000
     1.0000   1.0000   1.0000   1.0000   1.0000   1.0000   1.0000   1.0000
     1.0000   1.0000   1.0000   1.0000   1.0000   1.0000   1.0000   1.0000
     1.0000   1.0000   1.0000   1.0000   1.0000   1.0000   1.0000   1.0000
     1.0000   1.0000   1.0000   1.0000   1.0000   1.0000   0.9981   0.9980
     0.9852   0.6503   0.2008   0.0149   0.0013   0.0000   0.0000   0.0000
     0.0000   0.0000   0.0000   0.0000   0.0000   0.0000   0.0000   0.0000
     0.0000   0.0000   0.0000   0.0000   0.0000   0.0000

          k = 0.2500 0.4330 0.0000 (  3907 PWs)   bands (ev):

   -40.4526 -40.4434 -40.1706 -40.1613 -40.1102 -40.0954 -40.0817 -40.0784
   -40.0658 -40.0467 -40.0298 -40.0290 -40.0253 -39.9968 -39.9871 -39.9699
   -39.9150 -39.9138 -39.8891 -39.8635 -39.8378 -39.8343 -39.7688 -39.7624
   -39.7344 -39.3856 -39.3854   6.5094   6.5946   6.8125   6.8565   7.2037
     7.2777   7.2978   7.3283   7.6829   7.7465   7.8930   7.9338   7.9958
     8.0225   8.0872   8.2157   8.3669   8.4504   8.5031   8.7368   8.8320
     8.9495   9.2250   9.3671   9.4411   9.6009   9.7003   9.9502  10.0514
    10.2413  10.2520  10.4908  11.0410  11.1417  11.2241  11.2392  11.3434
    11.5589  11.9196  12.2963  12.6038  12.6932  12.8830  13.1265  13.2402
    14.4678  14.5437  14.7011  14.9561  15.3679  16.0520  16.8520  17.9379
    18.9685  19.3104  19.7141  20.1506  20.3064  20.4404

     occupation numbers 
     1.0000   1.0000   1.0000   1.0000   1.0000   1.0000   1.0000   1.0000
     1.0000   1.0000   1.0000   1.0000   1.0000   1.0000   1.0000   1.0000
     1.0000   1.0000   1.0000   1.0000   1.0000   1.0000   1.0000   1.0000
     1.0000   1.0000   1.0000   1.0000   1.0000   1.0000   1.0000   1.0000
     1.0000   1.0000   1.0000   1.0000   1.0000   1.0000   1.0000   1.0000
     1.0000   1.0000   1.0000   1.0000   1.0000   1.0000   1.0000   1.0000
     1.0000   1.0000   1.0000   1.0000   1.0000   1.0000   1.0000   1.0000
     1.0000   1.0000   1.0000   1.0000   1.0000   1.0000   1.0000   1.0000
     1.0000   1.0000   1.0000   1.0000   0.9974   0.0001   0.0000   0.0000
     0.0000   0.0000   0.0000   0.0000   0.0000   0.0000   0.0000   0.0000
     0.0000   0.0000   0.0000   0.0000   0.0000   0.0000

          k =-0.2500 0.1443 0.0000 (  3966 PWs)   bands (ev):

   -40.4461 -40.4361 -40.1630 -40.1450 -40.0918 -40.0663 -40.0492 -40.0355
   -40.0169 -39.9337 -39.9168 -39.9099 -39.9009 -39.8820 -39.8589 -39.8575
   -39.8483 -39.8374 -39.8363 -39.8080 -39.7786 -39.7703 -39.7331 -39.6848
   -39.6845 -39.4005 -39.4003   4.8086   5.0432   5.5418   5.8999   6.3686
     6.8310   7.0723   7.1960   7.2426   7.4334   7.5245   7.6377   7.8776
     8.0562   8.2148   8.2849   8.4616   8.5189   8.6580   8.7309   8.9525
     9.1083   9.1628   9.5824   9.6481   9.7448   9.8073  10.2628  10.3206
    10.4454  10.5150  10.5458  10.5882  10.7397  10.8297  10.8705  10.9136
    10.9395  11.0597  11.1260  11.1378  11.3079  11.3299  11.6010  11.7013
    11.7615  12.0615  12.1313  12.2294  12.6137  13.3947  13.6915  15.3877
    16.5523  17.4090  18.8487  19.6132  19.8064  21.3377

     occupation numbers 
     1.0000   1.0000   1.0000   1.0000   1.0000   1.0000   1.0000   1.0000
     1.0000   1.0000   1.0000   1.0000   1.0000   1.0000   1.0000   1.0000
     1.0000   1.0000   1.0000   1.0000   1.0000   1.0000   1.0000   1.0000
     1.0000   1.0000   1.0000   1.0000   1.0000   1.0000   1.0000   1.0000
     1.0000   1.0000   1.0000   1.0000   1.0000   1.0000   1.0000   1.0000
     1.0000   1.0000   1.0000   1.0000   1.0000   1.0000   1.0000   1.0000
     1.0000   1.0000   1.0000   1.0000   1.0000   1.0000   1.0000   1.0000
     1.0000   1.0000   1.0000   1.0000   1.0000   1.0000   1.0000   1.0000
     1.0000   1.0000   1.0000   1.0000   1.0000   1.0000   1.0000   1.0000
     1.0000   1.0000   1.0000   1.0000   1.0000   0.0000   0.0000   0.0000
     0.0000   0.0000   0.0000   0.0000   0.0000   0.0000

          k = 0.2500 0.1443 0.0000 (  3966 PWs)   bands (ev):

   -40.4565 -40.4415 -40.0902 -40.0632 -40.0225 -40.0165 -40.0136 -39.9932
   -39.9905 -39.9748 -39.9555 -39.9381 -39.9260 -39.9103 -39.9043 -39.8901
   -39.8826 -39.8703 -39.8221 -39.8169 -39.7800 -39.7747 -39.7256 -39.7239
   -39.7166 -39.3944 -39.3942   4.7095   4.9996   5.4077   5.9796   6.3485
     6.7444   6.8035   6.8655   6.9325   7.4608   7.5350   7.7535   7.8959
     8.2062   8.4238   8.5106   8.5658   8.6452   8.7591   9.2387   9.2899
     9.3966   9.5702   9.6288   9.6877   9.7159   9.8039   9.9416  10.0847
    10.3362  10.4489  10.4723  10.5682  10.5987  10.6494  10.7216  10.9604
    11.0217  11.0732  11.1071  11.2516  11.3374  11.3989  11.4629  11.5850
    11.8183  12.1476  12.4475  12.6491  12.7472  12.9339  13.6199  14.6339
    15.8737  16.7920  18.8876  19.6456  19.7938  21.4951

     occupation numbers 
     1.0000   1.0000   1.0000   1.0000   1.0000   1.0000   1.0000   1.0000
     1.0000   1.0000   1.0000   1.0000   1.0000   1.0000   1.0000   1.0000
     1.0000   1.0000   1.0000   1.0000   1.0000   1.0000   1.0000   1.0000
     1.0000   1.0000   1.0000   1.0000   1.0000   1.0000   1.0000   1.0000
     1.0000   1.0000   1.0000   1.0000   1.0000   1.0000   1.0000   1.0000
     1.0000   1.0000   1.0000   1.0000   1.0000   1.0000   1.0000   1.0000
     1.0000   1.0000   1.0000   1.0000   1.0000   1.0000   1.0000   1.0000
     1.0000   1.0000   1.0000   1.0000   1.0000   1.0000   1.0000   1.0000
     1.0000   1.0000   1.0000   1.0000   1.0000   1.0000   1.0000   1.0000
     1.0000   1.0000   1.0000   1.0000   0.8210   0.0000   0.0000   0.0000
     0.0000   0.0000   0.0000   0.0000   0.0000   0.0000

          k = 0.5000-0.2887 0.0000 (  3940 PWs)   bands (ev):

   -40.4373 -40.4193 -40.3040 -40.2894 -40.2252 -40.2018 -40.1968 -40.1693
   -40.1533 -40.0176 -40.0174 -39.9479 -39.9458 -39.9088 -39.9015 -39.8772
   -39.8732 -39.8556 -39.8521 -39.8254 -39.7995 -39.7991 -39.7791 -39.7206
   -39.7204 -39.3944 -39.3942   5.7925   5.9295   6.0439   6.1641   6.4110
     6.5654   6.7064   6.7492   6.7586   6.8871   6.9072   7.0117   7.3292
     7.6029   8.0964   8.1549   8.2629   8.4103   8.9469   8.9696   9.9977
    10.0212  10.1515  10.2600  10.6174  10.7054  10.8758  11.1418  11.2283
    11.2684  11.8948  12.0263  12.2484  12.3487  12.4636  12.6194  12.6385
    12.6718  12.7471  12.8078  12.8090  12.9086  12.9906  12.9963  13.1096
    13.2444  14.0551  14.3621  14.8117  14.8820  15.0390  15.0589  16.3147
    16.4544  17.1812  17.1946  18.3598  18.3601  20.1953

     occupation numbers 
     1.0000   1.0000   1.0000   1.0000   1.0000   1.0000   1.0000   1.0000
     1.0000   1.0000   1.0000   1.0000   1.0000   1.0000   1.0000   1.0000
     1.0000   1.0000   1.0000   1.0000   1.0000   1.0000   1.0000   1.0000
     1.0000   1.0000   1.0000   1.0000   1.0000   1.0000   1.0000   1.0000
     1.0000   1.0000   1.0000   1.0000   1.0000   1.0000   1.0000   1.0000
     1.0000   1.0000   1.0000   1.0000   1.0000   1.0000   1.0000   1.0000
     1.0000   1.0000   1.0000   1.0000   1.0000   1.0000   1.0000   1.0000
     1.0000   1.0000   1.0000   1.0000   1.0000   1.0000   1.0000   1.0000
     0.9998   0.8221   0.1191   0.1113   0.0000   0.0000   0.0000   0.0000
     0.0000   0.0000   0.0000   0.0000   0.0000   0.0000   0.0000   0.0000
     0.0000   0.0000   0.0000   0.0000   0.0000   0.0000

          k =-0.5000-0.2887 0.0000 (  3940 PWs)   bands (ev):

   -40.4558 -40.4440 -40.1898 -40.1856 -40.1360 -40.1307 -40.1151 -40.0953
   -40.0934 -40.0503 -40.0455 -39.9875 -39.9746 -39.9735 -39.9578 -39.9415
   -39.9281 -39.9237 -39.9101 -39.8873 -39.8028 -39.7924 -39.7608 -39.7594
   -39.7169 -39.3805 -39.3803   5.7011   5.8827   5.9074   6.2376   6.2440
     6.4817   6.5350   6.6135   6.7388   6.7460   6.9437   6.9802   7.4153
     7.7134   7.8723   8.5615   8.8871   9.0270   9.1713   9.2949   9.4692
     9.5650   9.9823  10.2653  10.3832  10.4631  10.7975  11.2598  11.3042
    11.4450  11.9500  11.9883  12.1175  12.4622  12.6304  12.6805  12.7111
    12.7524  12.7569  12.8172  12.8243  12.9163  12.9825  12.9842  13.0285
    13.2250  13.7843  13.7989  15.0622  15.4511  15.8806  16.3886  16.5122
    16.5618  17.3933  17.4811  17.5838  18.3074  18.3792

     occupation numbers 
     1.0000   1.0000   1.0000   1.0000   1.0000   1.0000   1.0000   1.0000
     1.0000   1.0000   1.0000   1.0000   1.0000   1.0000   1.0000   1.0000
     1.0000   1.0000   1.0000   1.0000   1.0000   1.0000   1.0000   1.0000
     1.0000   1.0000   1.0000   1.0000   1.0000   1.0000   1.0000   1.0000
     1.0000   1.0000   1.0000   1.0000   1.0000   1.0000   1.0000   1.0000
     1.0000   1.0000   1.0000   1.0000   1.0000   1.0000   1.0000   1.0000
     1.0000   1.0000   1.0000   1.0000   1.0000   1.0000   1.0000   1.0000
     1.0000   1.0000   1.0000   1.0000   1.0000   1.0000   0.9994   0.9850
     0.7703   0.7204   0.0660   0.0400   0.0000   0.0000   0.0000   0.0000
     0.0000   0.0000   0.0000   0.0000   0.0000   0.0000   0.0000   0.0000
     0.0000   0.0000   0.0000   0.0000   0.0000   0.0000

          k =-0.2500 0.4330 0.0000 (  3907 PWs)   bands (ev):

   -40.4467 -40.4317 -40.2519 -40.2353 -40.1620 -40.1587 -40.1394 -40.1218
   -40.1134 -40.0003 -39.9996 -39.9860 -39.9858 -39.9322 -39.9290 -39.9265
   -39.9237 -39.9047 -39.8625 -39.8440 -39.7905 -39.7901 -39.7741 -39.7727
   -39.7700 -39.3928 -39.3926   6.4098   6.5889   6.6538   6.7998   7.0690
     7.1435   7.3702   7.4355   7.7629   7.8191   7.8294   7.9669   7.9975
     8.0640   8.2037   8.3300   8.4400   8.5926   8.7236   8.7705   8.8334
     8.9097   9.2923   9.3908   9.4971   9.6021   9.6576   9.7392   9.9311
    10.2392  10.4288  10.6079  10.8508  10.9659  11.2749  11.3509  11.4665
    11.5541  12.0592  12.3171  12.3948  12.5936  12.7291  13.0227  13.2350
    14.3560  14.4236  14.6813  14.8885  15.4668  16.3165  16.9007  18.0394
    18.8232  19.0610  19.2964  19.6920  19.9365  20.5626

     occupation numbers 
     1.0000   1.0000   1.0000   1.0000   1.0000   1.0000   1.0000   1.0000
     1.0000   1.0000   1.0000   1.0000   1.0000   1.0000   1.0000   1.0000
     1.0000   1.0000   1.0000   1.0000   1.0000   1.0000   1.0000   1.0000
     1.0000   1.0000   1.0000   1.0000   1.0000   1.0000   1.0000   1.0000
     1.0000   1.0000   1.0000   1.0000   1.0000   1.0000   1.0000   1.0000
     1.0000   1.0000   1.0000   1.0000   1.0000   1.0000   1.0000   1.0000
     1.0000   1.0000   1.0000   1.0000   1.0000   1.0000   1.0000   1.0000
     1.0000   1.0000   1.0000   1.0000   1.0000   1.0000   1.0000   1.0000
     1.0000   1.0000   1.0000   1.0000   1.0000   0.9391   0.0000   0.0000
     0.0000   0.0000   0.0000   0.0000   0.0000   0.0000   0.0000   0.0000
     0.0000   0.0000   0.0000   0.0000   0.0000   0.0000

          k = 0.5000 0.0000 0.0000 (  3907 PWs)   bands (ev):

   -40.4369 -40.4274 -40.2135 -40.2024 -40.1521 -40.1285 -40.1159 -40.0964
   -40.0796 -40.0416 -40.0361 -39.9816 -39.9748 -39.9597 -39.9525 -39.9428
   -39.9272 -39.9181 -39.8964 -39.8627 -39.8234 -39.8176 -39.7723 -39.7653
   -39.7356 -39.3870 -39.3868   6.4910   6.6253   6.6796   6.8473   7.2288
     7.3129   7.3336   7.3605   7.6810   7.7695   7.8299   7.8863   7.9605
     8.0211   8.1240   8.1983   8.3984   8.4566   8.4984   8.8068   8.8747
     9.0517   9.2276   9.3282   9.5325   9.5916   9.7003   9.8974  10.0396
    10.1468  10.3036  10.4872  10.8526  11.1192  11.2105  11.3489  11.4619
    11.5438  11.8774  12.3283  12.6662  12.7694  12.8298  13.0773  13.2146
    14.4555  14.5323  14.7528  14.9131  15.3430  16.0719  16.7517  17.9621
    19.0295  19.4543  19.6830  19.9652  20.1080  20.1803

     occupation numbers 
     1.0000   1.0000   1.0000   1.0000   1.0000   1.0000   1.0000   1.0000
     1.0000   1.0000   1.0000   1.0000   1.0000   1.0000   1.0000   1.0000
     1.0000   1.0000   1.0000   1.0000   1.0000   1.0000   1.0000   1.0000
     1.0000   1.0000   1.0000   1.0000   1.0000   1.0000   1.0000   1.0000
     1.0000   1.0000   1.0000   1.0000   1.0000   1.0000   1.0000   1.0000
     1.0000   1.0000   1.0000   1.0000   1.0000   1.0000   1.0000   1.0000
     1.0000   1.0000   1.0000   1.0000   1.0000   1.0000   1.0000   1.0000
     1.0000   1.0000   1.0000   1.0000   1.0000   1.0000   1.0000   1.0000
     1.0000   1.0000   1.0000   0.9999   0.5601   0.0261   0.0000   0.0000
     0.0000   0.0000   0.0000   0.0000   0.0000   0.0000   0.0000   0.0000
     0.0000   0.0000   0.0000   0.0000   0.0000   0.0000

     the Fermi energy is    12.7738 ev

!    total energy              =   -1896.11873407 Ry
     estimated scf accuracy    <       0.00000079 Ry
     smearing contrib. (-TS)   =      -0.00113869 Ry
     internal energy E=F+TS    =   -1896.11759538 Ry

     The total energy is F=E-TS. E is the sum of the following terms:
     one-electron contribution =  -11348.72388716 Ry
     hartree contribution      =    5754.06288540 Ry
     xc contribution           =    -512.02100296 Ry
     ewald contribution        =    4210.56440934 Ry

     convergence has been achieved in  43 iterations

     negative rho (up, down):  1.582E+00 0.000E+00

     Forces acting on atoms (cartesian axes, Ry/au):

     atom    1 type  1   force =    -0.02215150   -0.01430716   -0.08941502
     atom    2 type  1   force =    -0.02698375   -0.01274803   -0.08269553
     atom    3 type  1   force =    -0.00450313    0.00246026    0.03374561
     atom    4 type  1   force =     0.00450312   -0.00246130   -0.03372454
     atom    5 type  1   force =     0.02699160    0.01274981    0.08267047
     atom    6 type  1   force =     0.02214589    0.01430578    0.08943721
     atom    7 type  1   force =    -0.00091390   -0.00187942    0.01214635
     atom    8 type  1   force =    -0.00000253    0.00000228   -0.00003791
     atom    9 type  1   force =     0.00091419    0.00187778   -0.01212665
     The non-local contrib.  to forces
     atom    1 type  1   force =    -0.03327941   -0.01842701   -0.03047900
     atom    2 type  1   force =    -0.03330914   -0.01771270   -0.02082887
     atom    3 type  1   force =    -0.01724038    0.00562396    0.06861986
     atom    4 type  1   force =     0.01724188   -0.00562449   -0.06854105
     atom    5 type  1   force =     0.03331493    0.01771515    0.02071464
     atom    6 type  1   force =     0.03327589    0.01842485    0.03049170
     atom    7 type  1   force =    -0.00077885   -0.00024969   -0.01507820
     atom    8 type  1   force =    -0.00000172    0.00000122   -0.00009655
     atom    9 type  1   force =     0.00077945    0.00024937    0.01516698
     The ionic contribution  to forces
     atom    1 type  1   force =    -1.15885405   -0.80150012 -172.97327030
     atom    2 type  1   force =    -1.15885404   -0.80150010   84.43030515
     atom    3 type  1   force =    -0.36267331    0.13540066  342.43483979
     atom    4 type  1   force =     0.36268573   -0.13541379 -342.43498741
     atom    5 type  1   force =     1.15886646    0.80148695  -84.43045272
     atom    6 type  1   force =     1.15886647    0.80148697  172.97312273
     atom    7 type  1   force =    -0.00101084    0.00037866 -257.40135071
     atom    8 type  1   force =    -0.00001242    0.00001315    0.00014758
     atom    9 type  1   force =     0.00098601   -0.00035239  257.40164591
     The local contribution  to forces
     atom    1 type  1   force =     1.17036106    0.80339230  172.91311168
     atom    2 type  1   force =     1.16534989    0.80266033  -84.48809043
     atom    3 type  1   force =     0.37841340   -0.14001889 -342.46009413
     atom    4 type  1   force =    -0.37842446    0.14003645  342.45830683
     atom    5 type  1   force =    -1.16536789   -0.80264839   84.49109599
     atom    6 type  1   force =    -1.17037023   -0.80338160 -172.91318578
     atom    7 type  1   force =     0.00015122   -0.00047123  257.42947170
     atom    8 type  1   force =     0.00001255   -0.00001143    0.00217782
     atom    9 type  1   force =    -0.00013043    0.00044850 -257.43208955
     The core correction contribution to forces
     atom    1 type  1   force =    -0.00038756    0.00222219   -0.00218434
     atom    2 type  1   force =    -0.00017560    0.00380966    0.00008294
     atom    3 type  1   force =    -0.00300159    0.00146010   -0.00882574
     atom    4 type  1   force =     0.00300148   -0.00145986    0.00882904
     atom    5 type  1   force =     0.00017837   -0.00380945   -0.00008411
     atom    6 type  1   force =     0.00038642   -0.00222262    0.00218525
     atom    7 type  1   force =     0.00072020   -0.00153402   -0.00496213
     atom    8 type  1   force =    -0.00000038    0.00000016   -0.00000182
     atom    9 type  1   force =    -0.00071963    0.00153323    0.00496135
     The Hubbard contrib.    to forces
     atom    1 type  1   force =     0.00000000    0.00000000    0.00000000
     atom    2 type  1   force =     0.00000000    0.00000000    0.00000000
     atom    3 type  1   force =     0.00000000    0.00000000    0.00000000
     atom    4 type  1   force =     0.00000000    0.00000000    0.00000000
     atom    5 type  1   force =     0.00000000    0.00000000    0.00000000
     atom    6 type  1   force =     0.00000000    0.00000000    0.00000000
     atom    7 type  1   force =     0.00000000    0.00000000    0.00000000
     atom    8 type  1   force =     0.00000000    0.00000000    0.00000000
     atom    9 type  1   force =     0.00000000    0.00000000    0.00000000
     The SCF correction term to forces
     atom    1 type  1   force =     0.00000877    0.00000534    0.00340656
     atom    2 type  1   force =     0.00000546   -0.00000537   -0.00416471
     atom    3 type  1   force =    -0.00000095   -0.00000571   -0.00079455
     atom    4 type  1   force =    -0.00000120    0.00000025    0.00266767
     atom    5 type  1   force =     0.00000005    0.00000541    0.00139628
     atom    6 type  1   force =    -0.00001235   -0.00000197   -0.00317707
     atom    7 type  1   force =     0.00000467   -0.00000329    0.00406530
     atom    8 type  1   force =    -0.00000026   -0.00000095   -0.00226533
     atom    9 type  1   force =    -0.00000091   -0.00000107   -0.00181172

     Total force =     0.188338     Total SCF correction =     0.008584


     Computing stress (Cartesian axis) and pressure


     negative rho (up, down):  1.582E+00 0.000E+00
          total   stress  (Ry/bohr**3)                   (kbar)     P=      -22.59
  -0.00073658  -0.00002947   0.00001275         -108.35       -4.34        1.88
  -0.00002947  -0.00070954   0.00019357           -4.34     -104.38       28.48
   0.00001275   0.00019357   0.00098537            1.88       28.48      144.95

     kinetic stress (kbar)  35452.17     87.75     46.59
                               87.75  35413.90   -108.91
                               46.59   -108.91  35818.94

     local   stress (kbar)**********   1620.44    321.58
                             1620.44**********  -1568.11
                              321.58  -1568.111166709.34

     nonloc. stress (kbar)   -215.22     16.76      4.06
                               16.76   -239.38      7.49
                                4.06      7.49    -82.25

     hartree stress (kbar) 580234.34   -551.17   -108.12
                             -551.17 580933.72    483.10
                             -108.12    483.10-563834.56

     exc-cor stress (kbar)  26093.33     -0.59      0.14
                               -0.59  26094.64      1.20
                                0.14      1.20  26096.76

     corecor stress (kbar) -35998.09     -2.70     -2.17
                               -2.70 -35999.08      4.77
                               -2.17      4.77 -36009.51

     ewald   stress (kbar) 532107.68  -1174.82   -260.22
                            -1174.82 533547.88   1208.93
                             -260.22   1208.93-628553.77

     hubbard stress (kbar)      0.00      0.00      0.00
                                0.00      0.00      0.00
                                0.00      0.00      0.00

     DFT-D   stress (kbar)      0.00      0.00      0.00
                                0.00      0.00      0.00
                                0.00      0.00      0.00

     XDM     stress (kbar)      0.00      0.00      0.00
                                0.00      0.00      0.00
                                0.00      0.00      0.00

     dft-nl  stress (kbar)      0.00      0.00      0.00
                                0.00      0.00      0.00
                                0.00      0.00      0.00

     TS-vdW  stress (kbar)      0.00      0.00      0.00
                                0.00      0.00      0.00
                                0.00      0.00      0.00



     BFGS Geometry Optimization
     Energy error            =      0.0E+00
     Gradient error          =      8.9E-02

     number of scf cycles    =   1
     number of bfgs steps    =   0

     energy   new            =   -1896.1187340727 Ry

     new trust radius        =       0.0932422121 bohr
     new conv_thr            =       0.0000010000 Ry


ATOMIC_POSITIONS (angstrom)
Pt            0.9256099329        1.8670969775        4.5446656117
Pt            0.9230528170        1.8679220322       11.4361914083
Pt            0.9349490465        1.8759699160       18.3857794095
Pt            0.0023829478       -0.0013024618       -0.0178462557
Pt            0.0142833421        0.0067469085        6.9317173296
Pt            0.0117191015        0.0075702926       13.8232681325
Pt            1.8741843830        0.9363374519        2.3024155721
Pt            1.8746666605        0.9373332054        9.1839379372
Pt            1.8751517687        0.9383256778       16.0655108549



     Writing output data file ./surface.save/
     NEW-OLD atomic charge density approx. for the potential

     negative rho (up, down):  1.586E+00 0.000E+00

     total cpu time spent up to now is       36.5 secs

     Self-consistent Calculation

     iteration #  1     ecut=    30.00 Ry     beta= 0.30
     Davidson diagonalization with overlap
     ethr =  1.00E-06,  avg # of iterations = 10.2

     negative rho (up, down):  1.586E+00 0.000E+00

     total cpu time spent up to now is       39.1 secs

     total energy              =   -1895.40271882 Ry
     estimated scf accuracy    <       1.48595684 Ry

     iteration #  2     ecut=    30.00 Ry     beta= 0.30
     Davidson diagonalization with overlap
     ethr =  1.03E-03,  avg # of iterations =  7.6

     negative rho (up, down):  1.585E+00 0.000E+00

     total cpu time spent up to now is       40.6 secs

     total energy              =   -1887.72039653 Ry
     estimated scf accuracy    <     814.66721957 Ry

     iteration #  3     ecut=    30.00 Ry     beta= 0.30
     Davidson diagonalization with overlap
     ethr =  1.03E-03,  avg # of iterations =  7.9

     negative rho (up, down):  1.585E+00 0.000E+00

     total cpu time spent up to now is       42.3 secs

     total energy              =   -1895.92767957 Ry
     estimated scf accuracy    <      12.42886068 Ry

     iteration #  4     ecut=    30.00 Ry     beta= 0.30
     Davidson diagonalization with overlap
     ethr =  1.03E-03,  avg # of iterations =  5.0

     negative rho (up, down):  1.585E+00 0.000E+00

     total cpu time spent up to now is       43.3 secs

     total energy              =   -1895.85738275 Ry
     estimated scf accuracy    <      68.11510297 Ry

     iteration #  5     ecut=    30.00 Ry     beta= 0.30
     Davidson diagonalization with overlap
     ethr =  1.03E-03,  avg # of iterations =  2.0

     negative rho (up, down):  1.586E+00 0.000E+00

     total cpu time spent up to now is       44.1 secs

     total energy              =   -1896.13567984 Ry
     estimated scf accuracy    <       1.38998218 Ry

     iteration #  6     ecut=    30.00 Ry     beta= 0.30
     Davidson diagonalization with overlap
     ethr =  9.65E-04,  avg # of iterations =  1.2

     negative rho (up, down):  1.586E+00 0.000E+00

     total cpu time spent up to now is       44.8 secs

     total energy              =   -1896.13942718 Ry
     estimated scf accuracy    <       0.98998653 Ry

     iteration #  7     ecut=    30.00 Ry     beta= 0.30
     Davidson diagonalization with overlap
     ethr =  6.87E-04,  avg # of iterations =  1.1

     negative rho (up, down):  1.586E+00 0.000E+00

     total cpu time spent up to now is       45.5 secs

     total energy              =   -1896.13847056 Ry
     estimated scf accuracy    <       0.24607973 Ry

     iteration #  8     ecut=    30.00 Ry     beta= 0.30
     Davidson diagonalization with overlap
     ethr =  1.71E-04,  avg # of iterations =  3.5

     negative rho (up, down):  1.586E+00 0.000E+00

     total cpu time spent up to now is       46.4 secs

     total energy              =   -1896.13997523 Ry
     estimated scf accuracy    <       0.38794621 Ry

     iteration #  9     ecut=    30.00 Ry     beta= 0.30
     Davidson diagonalization with overlap
     ethr =  1.71E-04,  avg # of iterations =  1.0

     negative rho (up, down):  1.586E+00 0.000E+00

     total cpu time spent up to now is       47.1 secs

     total energy              =   -1896.13952783 Ry
     estimated scf accuracy    <       0.12449411 Ry

     iteration # 10     ecut=    30.00 Ry     beta= 0.30
     Davidson diagonalization with overlap
     ethr =  8.65E-05,  avg # of iterations =  1.3

     negative rho (up, down):  1.586E+00 0.000E+00

     total cpu time spent up to now is       47.8 secs

     total energy              =   -1896.14014451 Ry
     estimated scf accuracy    <       0.01087189 Ry

     iteration # 11     ecut=    30.00 Ry     beta= 0.30
     Davidson diagonalization with overlap
     ethr =  7.55E-06,  avg # of iterations =  6.6

     negative rho (up, down):  1.586E+00 0.000E+00

     total cpu time spent up to now is       48.9 secs

     total energy              =   -1896.13901478 Ry
     estimated scf accuracy    <       0.09564479 Ry

     iteration # 12     ecut=    30.00 Ry     beta= 0.30
     Davidson diagonalization with overlap
     ethr =  7.55E-06,  avg # of iterations =  1.1

     negative rho (up, down):  1.585E+00 0.000E+00

     total cpu time spent up to now is       49.6 secs

     total energy              =   -1896.13976179 Ry
     estimated scf accuracy    <       0.03164712 Ry

     iteration # 13     ecut=    30.00 Ry     beta= 0.30
     Davidson diagonalization with overlap
     ethr =  7.55E-06,  avg # of iterations =  1.1

     negative rho (up, down):  1.585E+00 0.000E+00

     total cpu time spent up to now is       50.3 secs

     total energy              =   -1896.13972024 Ry
     estimated scf accuracy    <       0.02833324 Ry

     iteration # 14     ecut=    30.00 Ry     beta= 0.30
     Davidson diagonalization with overlap
     ethr =  7.55E-06,  avg # of iterations =  1.0

     negative rho (up, down):  1.585E+00 0.000E+00

     total cpu time spent up to now is       51.1 secs

     total energy              =   -1896.14007096 Ry
     estimated scf accuracy    <       0.00556371 Ry

     iteration # 15     ecut=    30.00 Ry     beta= 0.30
     Davidson diagonalization with overlap
     ethr =  3.86E-06,  avg # of iterations =  1.0

     negative rho (up, down):  1.585E+00 0.000E+00

     total cpu time spent up to now is       51.8 secs

     total energy              =   -1896.13996565 Ry
     estimated scf accuracy    <       0.04588540 Ry

     iteration # 16     ecut=    30.00 Ry     beta= 0.30
     Davidson diagonalization with overlap
     ethr =  3.86E-06,  avg # of iterations =  1.0

     negative rho (up, down):  1.585E+00 0.000E+00

     total cpu time spent up to now is       52.5 secs

     total energy              =   -1896.14002966 Ry
     estimated scf accuracy    <       0.01281594 Ry

     iteration # 17     ecut=    30.00 Ry     beta= 0.30
     Davidson diagonalization with overlap
     ethr =  3.86E-06,  avg # of iterations =  1.0

     negative rho (up, down):  1.585E+00 0.000E+00

     total cpu time spent up to now is       53.2 secs

     total energy              =   -1896.14004083 Ry
     estimated scf accuracy    <       0.00709831 Ry

     iteration # 18     ecut=    30.00 Ry     beta= 0.30
     Davidson diagonalization with overlap
     ethr =  3.86E-06,  avg # of iterations =  1.0

     negative rho (up, down):  1.585E+00 0.000E+00

     total cpu time spent up to now is       53.9 secs

     total energy              =   -1896.14010441 Ry
     estimated scf accuracy    <       0.00335061 Ry

     iteration # 19     ecut=    30.00 Ry     beta= 0.30
     Davidson diagonalization with overlap
     ethr =  2.33E-06,  avg # of iterations =  1.0

     negative rho (up, down):  1.585E+00 0.000E+00

     total cpu time spent up to now is       54.6 secs

     total energy              =   -1896.14009824 Ry
     estimated scf accuracy    <       0.01443102 Ry

     iteration # 20     ecut=    30.00 Ry     beta= 0.30
     Davidson diagonalization with overlap
     ethr =  2.33E-06,  avg # of iterations =  1.0

     negative rho (up, down):  1.585E+00 0.000E+00

     total cpu time spent up to now is       55.3 secs

     total energy              =   -1896.14015000 Ry
     estimated scf accuracy    <       0.00143977 Ry

     iteration # 21     ecut=    30.00 Ry     beta= 0.30
     Davidson diagonalization with overlap
     ethr =  1.00E-06,  avg # of iterations =  1.0

     negative rho (up, down):  1.585E+00 0.000E+00

     total cpu time spent up to now is       56.0 secs

     total energy              =   -1896.14016286 Ry
     estimated scf accuracy    <       0.00278079 Ry

     iteration # 22     ecut=    30.00 Ry     beta= 0.30
     Davidson diagonalization with overlap
     ethr =  1.00E-06,  avg # of iterations =  1.0

     negative rho (up, down):  1.585E+00 0.000E+00

     total cpu time spent up to now is       56.8 secs

     total energy              =   -1896.14016763 Ry
     estimated scf accuracy    <       0.00009329 Ry

     iteration # 23     ecut=    30.00 Ry     beta= 0.30
     Davidson diagonalization with overlap
     ethr =  6.48E-08,  avg # of iterations =  1.0

     negative rho (up, down):  1.585E+00 0.000E+00

     total cpu time spent up to now is       57.5 secs

     total energy              =   -1896.14016157 Ry
     estimated scf accuracy    <       0.00056405 Ry

     iteration # 24     ecut=    30.00 Ry     beta= 0.30
     Davidson diagonalization with overlap
     ethr =  6.48E-08,  avg # of iterations =  1.0

     negative rho (up, down):  1.585E+00 0.000E+00

     total cpu time spent up to now is       58.2 secs

     total energy              =   -1896.14016733 Ry
     estimated scf accuracy    <       0.00042362 Ry

     iteration # 25     ecut=    30.00 Ry     beta= 0.30
     Davidson diagonalization with overlap
     ethr =  6.48E-08,  avg # of iterations =  1.0

     negative rho (up, down):  1.585E+00 0.000E+00

     total cpu time spent up to now is       58.9 secs

     total energy              =   -1896.14017301 Ry
     estimated scf accuracy    <       0.00025433 Ry

     iteration # 26     ecut=    30.00 Ry     beta= 0.30
     Davidson diagonalization with overlap
     ethr =  6.48E-08,  avg # of iterations =  1.0

     negative rho (up, down):  1.585E+00 0.000E+00

     total cpu time spent up to now is       59.6 secs

     total energy              =   -1896.14017238 Ry
     estimated scf accuracy    <       0.00016874 Ry

     iteration # 27     ecut=    30.00 Ry     beta= 0.30
     Davidson diagonalization with overlap
     ethr =  6.48E-08,  avg # of iterations =  1.0

     negative rho (up, down):  1.585E+00 0.000E+00

     total cpu time spent up to now is       60.3 secs

     total energy              =   -1896.14017338 Ry
     estimated scf accuracy    <       0.00005755 Ry

     iteration # 28     ecut=    30.00 Ry     beta= 0.30
     Davidson diagonalization with overlap
     ethr =  4.00E-08,  avg # of iterations =  1.0

     negative rho (up, down):  1.585E+00 0.000E+00

     total cpu time spent up to now is       61.0 secs

     total energy              =   -1896.14017314 Ry
     estimated scf accuracy    <       0.00009077 Ry

     iteration # 29     ecut=    30.00 Ry     beta= 0.30
     Davidson diagonalization with overlap
     ethr =  4.00E-08,  avg # of iterations =  1.0

     negative rho (up, down):  1.585E+00 0.000E+00

     total cpu time spent up to now is       61.7 secs

     total energy              =   -1896.14017045 Ry
     estimated scf accuracy    <       0.00061106 Ry

     iteration # 30     ecut=    30.00 Ry     beta= 0.30
     Davidson diagonalization with overlap
     ethr =  4.00E-08,  avg # of iterations =  1.0

     negative rho (up, down):  1.585E+00 0.000E+00

     total cpu time spent up to now is       62.4 secs

     total energy              =   -1896.14017219 Ry
     estimated scf accuracy    <       0.00013944 Ry

     iteration # 31     ecut=    30.00 Ry     beta= 0.30
     Davidson diagonalization with overlap
     ethr =  4.00E-08,  avg # of iterations =  1.0

     negative rho (up, down):  1.585E+00 0.000E+00

     total cpu time spent up to now is       63.1 secs

     total energy              =   -1896.14017239 Ry
     estimated scf accuracy    <       0.00056841 Ry

     iteration # 32     ecut=    30.00 Ry     beta= 0.30
     Davidson diagonalization with overlap
     ethr =  4.00E-08,  avg # of iterations =  1.0

     negative rho (up, down):  1.585E+00 0.000E+00

     total cpu time spent up to now is       63.8 secs

     total energy              =   -1896.14017448 Ry
     estimated scf accuracy    <       0.00000195 Ry

     iteration # 33     ecut=    30.00 Ry     beta= 0.30
     Davidson diagonalization with overlap
     ethr =  1.35E-09,  avg # of iterations =  1.0

     negative rho (up, down):  1.585E+00 0.000E+00

     total cpu time spent up to now is       64.5 secs

     total energy              =   -1896.14017417 Ry
     estimated scf accuracy    <       0.00001244 Ry

     iteration # 34     ecut=    30.00 Ry     beta= 0.30
     Davidson diagonalization with overlap
     ethr =  1.35E-09,  avg # of iterations =  1.6

     negative rho (up, down):  1.585E+00 0.000E+00

     total cpu time spent up to now is       65.3 secs

     total energy              =   -1896.14017406 Ry
     estimated scf accuracy    <       0.00004181 Ry

     iteration # 35     ecut=    30.00 Ry     beta= 0.30
     Davidson diagonalization with overlap
     ethr =  1.35E-09,  avg # of iterations =  1.1

     negative rho (up, down):  1.585E+00 0.000E+00

     total cpu time spent up to now is       66.0 secs

     total energy              =   -1896.14017454 Ry
     estimated scf accuracy    <       0.00000428 Ry

     iteration # 36     ecut=    30.00 Ry     beta= 0.30
     Davidson diagonalization with overlap
     ethr =  1.35E-09,  avg # of iterations =  1.0

     negative rho (up, down):  1.585E+00 0.000E+00

     total cpu time spent up to now is       66.7 secs

     total energy              =   -1896.14017452 Ry
     estimated scf accuracy    <       0.00000287 Ry

     iteration # 37     ecut=    30.00 Ry     beta= 0.30
     Davidson diagonalization with overlap
     ethr =  1.35E-09,  avg # of iterations =  1.0

     negative rho (up, down):  1.585E+00 0.000E+00

     total cpu time spent up to now is       67.4 secs

     total energy              =   -1896.14017453 Ry
     estimated scf accuracy    <       0.00000380 Ry

     iteration # 38     ecut=    30.00 Ry     beta= 0.30
     Davidson diagonalization with overlap
     ethr =  1.35E-09,  avg # of iterations =  1.0

     negative rho (up, down):  1.585E+00 0.000E+00

     total cpu time spent up to now is       68.1 secs

     total energy              =   -1896.14017444 Ry
     estimated scf accuracy    <       0.00001266 Ry

     iteration # 39     ecut=    30.00 Ry     beta= 0.30
     Davidson diagonalization with overlap
     ethr =  1.35E-09,  avg # of iterations =  1.0

     negative rho (up, down):  1.585E+00 0.000E+00

     total cpu time spent up to now is       68.8 secs

     total energy              =   -1896.14017455 Ry
     estimated scf accuracy    <       0.00000279 Ry

     iteration # 40     ecut=    30.00 Ry     beta= 0.30
     Davidson diagonalization with overlap
     ethr =  1.35E-09,  avg # of iterations =  1.0

     negative rho (up, down):  1.585E+00 0.000E+00

     total cpu time spent up to now is       69.5 secs

     total energy              =   -1896.14017452 Ry
     estimated scf accuracy    <       0.00000573 Ry

     iteration # 41     ecut=    30.00 Ry     beta= 0.30
     Davidson diagonalization with overlap
     ethr =  1.35E-09,  avg # of iterations =  1.0

     negative rho (up, down):  1.585E+00 0.000E+00

     total cpu time spent up to now is       70.2 secs

     total energy              =   -1896.14017421 Ry
     estimated scf accuracy    <       0.00008809 Ry

     iteration # 42     ecut=    30.00 Ry     beta= 0.30
     Davidson diagonalization with overlap
     ethr =  1.35E-09,  avg # of iterations =  1.0

     negative rho (up, down):  1.585E+00 0.000E+00

     total cpu time spent up to now is       70.9 secs

     total energy              =   -1896.14017458 Ry
     estimated scf accuracy    <       0.00000253 Ry

     iteration # 43     ecut=    30.00 Ry     beta= 0.30
     Davidson diagonalization with overlap
     ethr =  1.35E-09,  avg # of iterations =  1.0

     negative rho (up, down):  1.585E+00 0.000E+00

     total cpu time spent up to now is       71.6 secs

     End of self-consistent calculation

          k = 0.0000 0.0000 0.0000 (  3941 PWs)   bands (ev):

   -40.3635 -40.3307 -40.1384 -40.0468 -39.9674 -39.9633 -39.9612 -39.9246
   -39.9175 -39.8731 -39.8698 -39.8558 -39.8554 -39.8388 -39.8279 -39.8151
   -39.8142 -39.7954 -39.7826 -39.7821 -39.7390 -39.6946 -39.6943 -39.6502
   -39.6500 -39.4067 -39.4065   2.9630   3.3019   3.7294   4.4995   5.0301
     5.5084   5.6832   5.8226   5.8518   7.7415   7.8828   8.2754   8.4424
     8.7047   9.0183   9.0559   9.0715   9.2479   9.2712   9.3187   9.3443
     9.3743   9.3899   9.4572   9.4676   9.5131   9.5184   9.5779   9.5917
     9.7348   9.7877   9.9392   9.9660  10.0671  10.2777  10.4002  10.5404
    11.0750  11.2953  11.3468  11.5184  11.5367  11.5374  11.6059  11.6285
    11.7410  11.8108  11.8452  12.0311  12.0324  12.6228  12.8632  12.8896
    13.0078  13.0242  17.6012  18.2683  19.0560  20.1509

     occupation numbers 
     1.0000   1.0000   1.0000   1.0000   1.0000   1.0000   1.0000   1.0000
     1.0000   1.0000   1.0000   1.0000   1.0000   1.0000   1.0000   1.0000
     1.0000   1.0000   1.0000   1.0000   1.0000   1.0000   1.0000   1.0000
     1.0000   1.0000   1.0000   1.0000   1.0000   1.0000   1.0000   1.0000
     1.0000   1.0000   1.0000   1.0000   1.0000   1.0000   1.0000   1.0000
     1.0000   1.0000   1.0000   1.0000   1.0000   1.0000   1.0000   1.0000
     1.0000   1.0000   1.0000   1.0000   1.0000   1.0000   1.0000   1.0000
     1.0000   1.0000   1.0000   1.0000   1.0000   1.0000   1.0000   1.0000
     1.0000   1.0000   1.0000   1.0000   1.0000   1.0000   1.0000   1.0000
     1.0000   1.0000   1.0000   1.0000   1.0000   1.0000   0.0008   0.0000
     0.0000   0.0000   0.0000   0.0000   0.0000   0.0000

          k = 0.0000 0.2887 0.0000 (  3966 PWs)   bands (ev):

   -40.3477 -40.3254 -40.1712 -40.1219 -40.0810 -40.0754 -40.0475 -40.0201
   -40.0104 -39.9603 -39.9427 -39.9284 -39.9146 -39.9110 -39.8827 -39.8772
   -39.8636 -39.8457 -39.8436 -39.8435 -39.7871 -39.7765 -39.7583 -39.7021
   -39.7019 -39.3963 -39.3962   4.8029   5.0724   5.4180   5.9692   6.4202
     6.8564   7.0789   7.1516   7.1941   7.5332   7.6410   7.7586   7.9817
     8.0918   8.1714   8.3052   8.3911   8.4815   8.6303   8.7312   8.8807
     9.1385   9.2035   9.3810   9.4795   9.6987   9.7507  10.1931  10.4256
    10.5928  10.6401  10.6592  10.7282  10.7941  10.8151  10.9054  10.9761
    11.0055  11.0392  11.0504  11.1461  11.2736  11.3070  11.4268  11.6507
    11.7454  11.8502  11.9751  12.2425  12.7008  13.4003  13.9130  15.2574
    16.4399  17.4019  18.8709  19.5429  19.9121  21.3056

     occupation numbers 
     1.0000   1.0000   1.0000   1.0000   1.0000   1.0000   1.0000   1.0000
     1.0000   1.0000   1.0000   1.0000   1.0000   1.0000   1.0000   1.0000
     1.0000   1.0000   1.0000   1.0000   1.0000   1.0000   1.0000   1.0000
     1.0000   1.0000   1.0000   1.0000   1.0000   1.0000   1.0000   1.0000
     1.0000   1.0000   1.0000   1.0000   1.0000   1.0000   1.0000   1.0000
     1.0000   1.0000   1.0000   1.0000   1.0000   1.0000   1.0000   1.0000
     1.0000   1.0000   1.0000   1.0000   1.0000   1.0000   1.0000   1.0000
     1.0000   1.0000   1.0000   1.0000   1.0000   1.0000   1.0000   1.0000
     1.0000   1.0000   1.0000   1.0000   1.0000   1.0000   1.0000   1.0000
     1.0000   1.0000   1.0000   1.0000   0.9932   0.0000   0.0000   0.0000
     0.0000   0.0000   0.0000   0.0000   0.0000   0.0000

          k = 0.0000-0.5774 0.0000 (  3940 PWs)   bands (ev):

   -40.3817 -40.3591 -40.2819 -40.2479 -40.2270 -40.1879 -40.1786 -40.0928
   -40.0766 -40.0265 -40.0262 -39.9790 -39.9736 -39.9563 -39.9352 -39.9265
   -39.9173 -39.8973 -39.8745 -39.8498 -39.8110 -39.8054 -39.8048 -39.7386
   -39.7385 -39.3868 -39.3867   5.7652   5.9908   6.0514   6.2141   6.3277
     6.4404   6.6474   6.8358   6.9294   6.9693   7.0347   7.0894   7.5647
     7.6787   7.7553   7.7980   8.2478   8.2527   9.0220   9.1561   9.9171
     9.9740  10.4628  10.5330  10.8000  10.8106  10.8679  11.1061  11.1153
    11.2471  11.6133  11.7558  12.2144  12.3239  12.4790  12.6648  12.6757
    12.6880  12.7556  12.7787  12.8420  12.8616  12.9469  12.9785  13.0008
    13.2600  13.9285  14.6346  14.7307  15.0323  15.1127  15.2494  15.5570
    15.7177  17.8640  17.9824  18.3313  18.3410  19.6417

     occupation numbers 
     1.0000   1.0000   1.0000   1.0000   1.0000   1.0000   1.0000   1.0000
     1.0000   1.0000   1.0000   1.0000   1.0000   1.0000   1.0000   1.0000
     1.0000   1.0000   1.0000   1.0000   1.0000   1.0000   1.0000   1.0000
     1.0000   1.0000   1.0000   1.0000   1.0000   1.0000   1.0000   1.0000
     1.0000   1.0000   1.0000   1.0000   1.0000   1.0000   1.0000   1.0000
     1.0000   1.0000   1.0000   1.0000   1.0000   1.0000   1.0000   1.0000
     1.0000   1.0000   1.0000   1.0000   1.0000   1.0000   1.0000   1.0000
     1.0000   1.0000   1.0000   1.0000   1.0000   1.0000   0.9999   0.9996
     0.9982   0.7154   0.4086   0.0076   0.0010   0.0000   0.0000   0.0000
     0.0000   0.0000   0.0000   0.0000   0.0000   0.0000   0.0000   0.0000
     0.0000   0.0000   0.0000   0.0000   0.0000   0.0000

          k = 0.2500 0.4330 0.0000 (  3907 PWs)   bands (ev):

   -40.3428 -40.3251 -40.1935 -40.1618 -40.1301 -40.1091 -40.1010 -40.0923
   -40.0820 -40.0558 -40.0361 -40.0351 -40.0263 -40.0123 -39.9937 -39.9749
   -39.9220 -39.9189 -39.9058 -39.8757 -39.8446 -39.8401 -39.7908 -39.7756
   -39.7641 -39.3824 -39.3822   6.5854   6.6898   6.8975   6.9275   7.1105
     7.1801   7.2509   7.2653   7.7044   7.8450   7.9006   7.9184   7.9822
     8.0423   8.0942   8.2660   8.3877   8.4231   8.4960   8.7417   8.8456
     8.9636   9.2531   9.3704   9.4699   9.6029   9.6877   9.9477  10.0604
    10.2308  10.2601  10.4928  10.9649  11.1445  11.1778  11.2136  11.2974
    11.5762  11.9271  12.2886  12.5923  12.6724  12.8936  13.1081  13.2261
    14.4516  14.5330  14.6859  14.9645  15.3637  16.0206  16.8716  17.9062
    18.9412  19.3265  19.7342  20.1496  20.3086  20.4221

     occupation numbers 
     1.0000   1.0000   1.0000   1.0000   1.0000   1.0000   1.0000   1.0000
     1.0000   1.0000   1.0000   1.0000   1.0000   1.0000   1.0000   1.0000
     1.0000   1.0000   1.0000   1.0000   1.0000   1.0000   1.0000   1.0000
     1.0000   1.0000   1.0000   1.0000   1.0000   1.0000   1.0000   1.0000
     1.0000   1.0000   1.0000   1.0000   1.0000   1.0000   1.0000   1.0000
     1.0000   1.0000   1.0000   1.0000   1.0000   1.0000   1.0000   1.0000
     1.0000   1.0000   1.0000   1.0000   1.0000   1.0000   1.0000   1.0000
     1.0000   1.0000   1.0000   1.0000   1.0000   1.0000   1.0000   1.0000
     1.0000   1.0000   1.0000   1.0000   0.9997   0.0000   0.0000   0.0000
     0.0000   0.0000   0.0000   0.0000   0.0000   0.0000   0.0000   0.0000
     0.0000   0.0000   0.0000   0.0000   0.0000   0.0000

          k =-0.2500 0.1443 0.0000 (  3966 PWs)   bands (ev):

   -40.3376 -40.3167 -40.1957 -40.1502 -40.1072 -40.0822 -40.0562 -40.0445
   -40.0246 -39.9603 -39.9290 -39.9186 -39.9003 -39.8866 -39.8680 -39.8631
   -39.8591 -39.8464 -39.8456 -39.8267 -39.7943 -39.7806 -39.7598 -39.6917
   -39.6916 -39.3979 -39.3978   4.8111   5.0675   5.4597   5.9445   6.4101
     6.8132   7.0852   7.2023   7.2725   7.4190   7.5877   7.6574   7.9386
     8.1589   8.2329   8.3454   8.3899   8.5395   8.6891   8.7362   8.9658
     9.1240   9.1496   9.6314   9.6711   9.7808   9.8518  10.1620  10.2409
    10.3706  10.4562  10.4935  10.5493  10.6822  10.7839  10.8548  10.9308
    10.9430  11.0376  11.1122  11.1170  11.2814  11.2880  11.6226  11.7048
    11.7676  12.0851  12.1306  12.2168  12.5883  13.3889  13.7609  15.3641
    16.5376  17.4555  18.8455  19.6238  19.8110  21.3521

     occupation numbers 
     1.0000   1.0000   1.0000   1.0000   1.0000   1.0000   1.0000   1.0000
     1.0000   1.0000   1.0000   1.0000   1.0000   1.0000   1.0000   1.0000
     1.0000   1.0000   1.0000   1.0000   1.0000   1.0000   1.0000   1.0000
     1.0000   1.0000   1.0000   1.0000   1.0000   1.0000   1.0000   1.0000
     1.0000   1.0000   1.0000   1.0000   1.0000   1.0000   1.0000   1.0000
     1.0000   1.0000   1.0000   1.0000   1.0000   1.0000   1.0000   1.0000
     1.0000   1.0000   1.0000   1.0000   1.0000   1.0000   1.0000   1.0000
     1.0000   1.0000   1.0000   1.0000   1.0000   1.0000   1.0000   1.0000
     1.0000   1.0000   1.0000   1.0000   1.0000   1.0000   1.0000   1.0000
     1.0000   1.0000   1.0000   1.0000   1.0000   0.0000   0.0000   0.0000
     0.0000   0.0000   0.0000   0.0000   0.0000   0.0000

          k = 0.2500 0.1443 0.0000 (  3966 PWs)   bands (ev):

   -40.3426 -40.3152 -40.1397 -40.0763 -40.0378 -40.0159 -40.0118 -39.9988
   -39.9954 -39.9861 -39.9676 -39.9659 -39.9412 -39.9243 -39.9141 -39.9048
   -39.8932 -39.8821 -39.8284 -39.8217 -39.7910 -39.7832 -39.7459 -39.7301
   -39.7295 -39.3928 -39.3926   4.7027   5.0091   5.3313   6.0444   6.3708
     6.6971   6.7950   6.8396   6.8762   7.5737   7.5909   7.8028   7.9908
     8.2154   8.5054   8.5132   8.5528   8.6558   8.7571   9.1577   9.2515
     9.3437   9.6217   9.6460   9.6999   9.7315   9.8240   9.9619  10.0634
    10.3624  10.4473  10.4616  10.5398  10.5648  10.6615  10.7619  10.9699
    11.0350  11.0454  11.1049  11.2288  11.3205  11.3805  11.4369  11.5557
    11.7444  12.1496  12.4943  12.6389  12.7499  12.9431  13.6240  14.6007
    15.8399  16.7835  18.8496  19.6243  19.7576  21.4458

     occupation numbers 
     1.0000   1.0000   1.0000   1.0000   1.0000   1.0000   1.0000   1.0000
     1.0000   1.0000   1.0000   1.0000   1.0000   1.0000   1.0000   1.0000
     1.0000   1.0000   1.0000   1.0000   1.0000   1.0000   1.0000   1.0000
     1.0000   1.0000   1.0000   1.0000   1.0000   1.0000   1.0000   1.0000
     1.0000   1.0000   1.0000   1.0000   1.0000   1.0000   1.0000   1.0000
     1.0000   1.0000   1.0000   1.0000   1.0000   1.0000   1.0000   1.0000
     1.0000   1.0000   1.0000   1.0000   1.0000   1.0000   1.0000   1.0000
     1.0000   1.0000   1.0000   1.0000   1.0000   1.0000   1.0000   1.0000
     1.0000   1.0000   1.0000   1.0000   1.0000   1.0000   1.0000   1.0000
     1.0000   1.0000   1.0000   1.0000   0.7783   0.0000   0.0000   0.0000
     0.0000   0.0000   0.0000   0.0000   0.0000   0.0000

          k = 0.5000-0.2887 0.0000 (  3940 PWs)   bands (ev):

   -40.3625 -40.3383 -40.3223 -40.2645 -40.2309 -40.2162 -40.2086 -40.1579
   -40.1321 -40.0207 -40.0205 -39.9509 -39.9482 -39.9290 -39.9112 -39.8924
   -39.8863 -39.8659 -39.8621 -39.8451 -39.8273 -39.8204 -39.8190 -39.7284
   -39.7282 -39.3895 -39.3893   5.8146   5.9448   6.0871   6.1846   6.3435
     6.5220   6.7000   6.7285   6.7767   6.8811   6.9599   7.0068   7.4344
     7.6659   8.1428   8.1775   8.3906   8.4423   8.8753   9.1229   9.9757
    10.0140  10.0330  10.1966  10.6023  10.7706  10.8316  11.1217  11.2117
    11.2724  11.9630  12.0141  12.2348  12.3216  12.4241  12.5818  12.6117
    12.6401  12.7479  12.8220  12.8222  12.9137  12.9804  12.9898  13.1433
    13.1581  14.0380  14.3511  14.7969  14.8346  15.0401  15.0450  16.0921
    16.2725  17.1460  17.1498  18.3503  18.3505  20.3106

     occupation numbers 
     1.0000   1.0000   1.0000   1.0000   1.0000   1.0000   1.0000   1.0000
     1.0000   1.0000   1.0000   1.0000   1.0000   1.0000   1.0000   1.0000
     1.0000   1.0000   1.0000   1.0000   1.0000   1.0000   1.0000   1.0000
     1.0000   1.0000   1.0000   1.0000   1.0000   1.0000   1.0000   1.0000
     1.0000   1.0000   1.0000   1.0000   1.0000   1.0000   1.0000   1.0000
     1.0000   1.0000   1.0000   1.0000   1.0000   1.0000   1.0000   1.0000
     1.0000   1.0000   1.0000   1.0000   1.0000   1.0000   1.0000   1.0000
     1.0000   1.0000   1.0000   1.0000   1.0000   1.0000   1.0000   1.0000
     1.0000   0.7985   0.0416   0.0410   0.0000   0.0000   0.0000   0.0000
     0.0000   0.0000   0.0000   0.0000   0.0000   0.0000   0.0000   0.0000
     0.0000   0.0000   0.0000   0.0000   0.0000   0.0000

          k =-0.5000-0.2887 0.0000 (  3940 PWs)   bands (ev):

   -40.3409 -40.3194 -40.1886 -40.1816 -40.1667 -40.1449 -40.1430 -40.1055
   -40.1047 -40.0592 -40.0484 -40.0079 -39.9871 -39.9851 -39.9663 -39.9545
   -39.9384 -39.9375 -39.9252 -39.9020 -39.8146 -39.7996 -39.7683 -39.7662
   -39.7465 -39.3781 -39.3780   5.6994   5.8788   5.9190   6.2027   6.2481
     6.4626   6.5214   6.5699   6.7228   6.7630   6.9562   6.9607   7.5037
     7.8573   7.9853   8.6672   8.8105   8.9714   9.1491   9.3025   9.5182
[...]
   -40.0237 -40.0117 -39.9895 -39.9802 -39.9674 -39.9561 -39.9020 -39.8911
   -39.8858 -39.8800 -39.8715 -39.8308 -39.7837 -39.7738 -39.7709 -39.6133
   -39.6133 -39.2270 -39.2269   5.9368   6.1748   6.2251   6.3239   6.5224
     6.5479   6.6354   6.6783   6.8358   7.0550   7.0781   7.2830   7.7801
     8.2607   8.5436   8.5963   8.6199   8.8737   9.3337   9.6853   9.6856
     9.7211  10.0682  10.2914  10.4035  10.4999  10.9832  11.1158  11.3283
    11.4825  11.9133  11.9694  12.2686  12.2831  12.4708  12.5947  12.5954
    12.6786  12.6995  12.7211  12.7658  12.8184  12.8783  13.0689  13.0808
    13.0853  13.9707  14.4618  14.7304  14.7906  15.1306  15.2629  15.4592
    15.4943  17.9116  18.3449  18.3862  18.5398  19.0660

     occupation numbers 
     1.0000   1.0000   1.0000   1.0000   1.0000   1.0000   1.0000   1.0000
     1.0000   1.0000   1.0000   1.0000   1.0000   1.0000   1.0000   1.0000
     1.0000   1.0000   1.0000   1.0000   1.0000   1.0000   1.0000   1.0000
     1.0000   1.0000   1.0000   1.0000   1.0000   1.0000   1.0000   1.0000
     1.0000   1.0000   1.0000   1.0000   1.0000   1.0000   1.0000   1.0000
     1.0000   1.0000   1.0000   1.0000   1.0000   1.0000   1.0000   1.0000
     1.0000   1.0000   1.0000   1.0000   1.0000   1.0000   1.0000   1.0000
     1.0000   1.0000   1.0000   1.0000   1.0000   1.0000   0.9905   0.9899
     0.2867   0.0988   0.0209   0.0002   0.0000   0.0000   0.0000   0.0000
     0.0000   0.0000   0.0000   0.0000   0.0000   0.0000   0.0000   0.0000
     0.0000   0.0000   0.0000   0.0000   0.0000   0.0000

          k =-0.5000-0.2887 0.0000 (  3940 PWs)   bands (ev):

   -40.2576 -40.2448 -40.2345 -40.2249 -40.2244 -40.2145 -40.2122 -40.0365
   -40.0309 -40.0152 -39.9936 -39.9813 -39.9692 -39.9641 -39.9109 -39.9091
   -39.8590 -39.8560 -39.8497 -39.8307 -39.8137 -39.7685 -39.7674 -39.6330
   -39.6329 -39.2240 -39.2239   5.9396   6.1317   6.1673   6.3435   6.4804
     6.5486   6.6401   6.6638   6.8576   7.0358   7.0387   7.2584   7.7345
     8.2111   8.5995   8.6570   9.0547   9.0565   9.3527   9.5000   9.6725
     9.7504   9.9790  10.2931  10.4253  10.5111  10.9514  11.0386  11.3444
    11.4656  11.9182  12.0018  12.1347  12.3649  12.4938  12.5873  12.6602
    12.6964  12.7172  12.7296  12.7730  12.8080  12.8510  12.8903  13.0626
    13.0646  13.6773  14.5014  14.6931  15.0577  15.4343  15.4450  15.6799
    15.6814  17.8159  17.8306  18.2737  18.3891  18.7615

     occupation numbers 
     1.0000   1.0000   1.0000   1.0000   1.0000   1.0000   1.0000   1.0000
     1.0000   1.0000   1.0000   1.0000   1.0000   1.0000   1.0000   1.0000
     1.0000   1.0000   1.0000   1.0000   1.0000   1.0000   1.0000   1.0000
     1.0000   1.0000   1.0000   1.0000   1.0000   1.0000   1.0000   1.0000
     1.0000   1.0000   1.0000   1.0000   1.0000   1.0000   1.0000   1.0000
     1.0000   1.0000   1.0000   1.0000   1.0000   1.0000   1.0000   1.0000
     1.0000   1.0000   1.0000   1.0000   1.0000   1.0000   1.0000   1.0000
     1.0000   1.0000   1.0000   1.0000   1.0000   1.0000   0.9954   0.5300
     0.1189   0.0287   0.0099   0.0001   0.0000   0.0000   0.0000   0.0000
     0.0000   0.0000   0.0000   0.0000   0.0000   0.0000   0.0000   0.0000
     0.0000   0.0000   0.0000   0.0000   0.0000   0.0000

          k =-0.2500 0.4330 0.0000 (  3907 PWs)   bands (ev):

   -40.1999 -40.1982 -40.1927 -40.1865 -40.1773 -40.1668 -40.1620 -40.0832
   -40.0643 -40.0572 -40.0455 -40.0452 -40.0367 -40.0285 -39.9035 -39.8915
   -39.8655 -39.8383 -39.8353 -39.8215 -39.7883 -39.7606 -39.7605 -39.6670
   -39.6670 -39.2260 -39.2259   6.9895   6.9981   7.0924   7.1179   7.3071
     7.3693   7.5990   7.6189   7.8039   7.8387   7.9337   8.0752   8.1734
     8.2811   8.3433   8.5338   8.5798   8.6985   8.7704   8.8372   9.0156
     9.0730   9.2527   9.2940   9.6994   9.7141   9.7413   9.7438  10.2220
    10.2481  10.4160  10.6996  10.8324  10.9720  11.0341  11.1534  11.2934
    11.4473  11.9335  12.3718  12.5904  12.6079  12.6399  12.6722  12.9063
    14.3513  14.4318  14.6049  14.9143  15.4128  16.1280  16.9734  17.8153
    18.7217  19.3768  19.4129  19.6289  19.9074  20.1781

     occupation numbers 
     1.0000   1.0000   1.0000   1.0000   1.0000   1.0000   1.0000   1.0000
     1.0000   1.0000   1.0000   1.0000   1.0000   1.0000   1.0000   1.0000
     1.0000   1.0000   1.0000   1.0000   1.0000   1.0000   1.0000   1.0000
     1.0000   1.0000   1.0000   1.0000   1.0000   1.0000   1.0000   1.0000
     1.0000   1.0000   1.0000   1.0000   1.0000   1.0000   1.0000   1.0000
     1.0000   1.0000   1.0000   1.0000   1.0000   1.0000   1.0000   1.0000
     1.0000   1.0000   1.0000   1.0000   1.0000   1.0000   1.0000   1.0000
     1.0000   1.0000   1.0000   1.0000   1.0000   1.0000   1.0000   1.0000
     1.0000   1.0000   1.0000   0.9936   0.9704   0.7817   0.3659   0.0000
     0.0000   0.0000   0.0000   0.0000   0.0000   0.0000   0.0000   0.0000
     0.0000   0.0000   0.0000   0.0000   0.0000   0.0000

          k = 0.5000 0.0000 0.0000 (  3907 PWs)   bands (ev):

   -40.1994 -40.1981 -40.1847 -40.1720 -40.1680 -40.1616 -40.1556 -40.0905
   -40.0819 -40.0649 -40.0462 -40.0409 -40.0379 -40.0360 -39.9062 -39.8960
   -39.8666 -39.8313 -39.8224 -39.8131 -39.7945 -39.7590 -39.7589 -39.6790
   -39.6789 -39.2254 -39.2253   6.9951   7.0108   7.1271   7.1927   7.2973
     7.3955   7.5644   7.5686   7.7910   7.8646   7.9562   8.0823   8.1844
     8.2736   8.3614   8.4875   8.5570   8.6911   8.7329   8.7829   8.9399
     9.0893   9.2405   9.2864   9.7102   9.7162   9.8311   9.8414  10.1976
    10.2682  10.3845  10.6326  10.7996  10.9542  11.0681  11.1368  11.2641
    11.5016  11.9040  12.3122  12.5888  12.6264  12.6492  12.7615  12.9227
    14.3660  14.4315  14.6192  14.9285  15.4047  16.0840  16.9009  17.8151
    18.7052  19.4836  19.5303  19.7946  19.9553  20.1612

     occupation numbers 
     1.0000   1.0000   1.0000   1.0000   1.0000   1.0000   1.0000   1.0000
     1.0000   1.0000   1.0000   1.0000   1.0000   1.0000   1.0000   1.0000
     1.0000   1.0000   1.0000   1.0000   1.0000   1.0000   1.0000   1.0000
     1.0000   1.0000   1.0000   1.0000   1.0000   1.0000   1.0000   1.0000
     1.0000   1.0000   1.0000   1.0000   1.0000   1.0000   1.0000   1.0000
     1.0000   1.0000   1.0000   1.0000   1.0000   1.0000   1.0000   1.0000
     1.0000   1.0000   1.0000   1.0000   1.0000   1.0000   1.0000   1.0000
     1.0000   1.0000   1.0000   1.0000   1.0000   1.0000   1.0000   1.0000
     1.0000   1.0000   1.0000   0.9946   0.8934   0.6756   0.0003   0.0000
     0.0000   0.0000   0.0000   0.0000   0.0000   0.0000   0.0000   0.0000
     0.0000   0.0000   0.0000   0.0000   0.0000   0.0000

     the Fermi energy is    12.6623 ev

!    total energy              =   -1896.19438252 Ry
     estimated scf accuracy    <          7.2E-09 Ry
     smearing contrib. (-TS)   =      -0.00188004 Ry
     internal energy E=F+TS    =   -1896.19250249 Ry

     The total energy is F=E-TS. E is the sum of the following terms:
     one-electron contribution =  -10225.09382651 Ry
     hartree contribution      =    5192.44294169 Ry
     xc contribution           =    -511.66585137 Ry
     ewald contribution        =    3648.12423370 Ry

     convergence has been achieved in  30 iterations

     negative rho (up, down):  1.586E+00 0.000E+00

     Forces acting on atoms (cartesian axes, Ry/au):

     atom    1 type  1   force =    -0.00042905   -0.00042274   -0.00005841
     atom    2 type  1   force =     0.00077697   -0.00007073    0.00035483
     atom    3 type  1   force =    -0.00028383    0.00030298   -0.00007566
     atom    4 type  1   force =     0.00028146   -0.00030158    0.00009681
     atom    5 type  1   force =    -0.00077753    0.00006886   -0.00035702
     atom    6 type  1   force =     0.00043059    0.00042441    0.00004992
     atom    7 type  1   force =    -0.00073035    0.00006098   -0.00017988
     atom    8 type  1   force =    -0.00000087    0.00000011   -0.00000771
     atom    9 type  1   force =     0.00073261   -0.00006229    0.00017712
     The non-local contrib.  to forces
     atom    1 type  1   force =    -0.00670826    0.00062856   -0.00387469
     atom    2 type  1   force =     0.00829019    0.00187955    0.00209217
     atom    3 type  1   force =    -0.01261778    0.00388884    0.05261651
     atom    4 type  1   force =     0.01261195   -0.00388604   -0.05259412
     atom    5 type  1   force =    -0.00829243   -0.00188222   -0.00209631
     atom    6 type  1   force =     0.00671361   -0.00062422    0.00387552
     atom    7 type  1   force =    -0.00125083    0.00249605   -0.02178074
     atom    8 type  1   force =    -0.00000265   -0.00000174   -0.00000630
     atom    9 type  1   force =     0.00125598   -0.00249721    0.02179472
     The ionic contribution  to forces
     atom    1 type  1   force =    -0.14243798    0.02473473 -163.50066564
     atom    2 type  1   force =     0.18527351    0.05174811   81.49738320
     atom    3 type  1   force =    -0.23481063    0.06504901  322.24676765
     atom    4 type  1   force =     0.23468410   -0.06500689 -322.24077078
     atom    5 type  1   force =    -0.18532265   -0.05180002  -81.50107487
     atom    6 type  1   force =     0.14254976   -0.02462860  163.49949383
     atom    7 type  1   force =    -0.05098263    0.07729255 -245.38191872
     atom    8 type  1   force =    -0.00006188   -0.00004440   -0.00248753
     atom    9 type  1   force =     0.05110841   -0.07734449  245.38327286
     The local contribution  to forces
     atom    1 type  1   force =     0.14906230   -0.02562121  163.50606138
     atom    2 type  1   force =    -0.19371966   -0.05368067  -81.49991311
     atom    3 type  1   force =     0.25033872   -0.06974309 -322.29213963
     atom    4 type  1   force =    -0.25020803    0.06969870  322.28595436
     atom    5 type  1   force =     0.19376990    0.05373408   81.50372355
     atom    6 type  1   force =    -0.14917772    0.02551288 -163.50500564
     atom    7 type  1   force =     0.05071930   -0.07915872  245.40699526
     atom    8 type  1   force =     0.00006392    0.00004649    0.00251993
     atom    9 type  1   force =    -0.05084764    0.07921077 -245.40882444
     The core correction contribution to forces
     atom    1 type  1   force =    -0.00034628   -0.00016439   -0.00163043
     atom    2 type  1   force =     0.00092870   -0.00001784    0.00071528
     atom    3 type  1   force =    -0.00319524    0.00110929   -0.00725460
     atom    4 type  1   force =     0.00319466   -0.00110834    0.00725564
     atom    5 type  1   force =    -0.00092853    0.00001742   -0.00071451
     atom    6 type  1   force =     0.00034692    0.00016468    0.00162907
     atom    7 type  1   force =     0.00078546   -0.00056678   -0.00387182
     atom    8 type  1   force =    -0.00000027   -0.00000017   -0.00000033
     atom    9 type  1   force =    -0.00078553    0.00056718    0.00387349
     The Hubbard contrib.    to forces
     atom    1 type  1   force =     0.00000000    0.00000000    0.00000000
     atom    2 type  1   force =     0.00000000    0.00000000    0.00000000
     atom    3 type  1   force =     0.00000000    0.00000000    0.00000000
     atom    4 type  1   force =     0.00000000    0.00000000    0.00000000
     atom    5 type  1   force =     0.00000000    0.00000000    0.00000000
     atom    6 type  1   force =     0.00000000    0.00000000    0.00000000
     atom    7 type  1   force =     0.00000000    0.00000000    0.00000000
     atom    8 type  1   force =     0.00000000    0.00000000    0.00000000
     atom    9 type  1   force =     0.00000000    0.00000000    0.00000000
     The SCF correction term to forces
     atom    1 type  1   force =     0.00000118   -0.00000039    0.00005315
     atom    2 type  1   force =     0.00000425    0.00000017    0.00007947
     atom    3 type  1   force =     0.00000110   -0.00000102   -0.00006341
     atom    4 type  1   force =    -0.00000121    0.00000103    0.00025389
     atom    5 type  1   force =    -0.00000381   -0.00000036   -0.00019269
     atom    6 type  1   force =    -0.00000196   -0.00000029    0.00005933
     atom    7 type  1   force =    -0.00000164   -0.00000209    0.00039832
     atom    8 type  1   force =     0.00000003   -0.00000004   -0.00003129
     atom    9 type  1   force =     0.00000141    0.00000149    0.00006267

     Total force =     0.001925     Total SCF correction =     0.000531
     SCF correction compared to forces is large: reduce conv_thr to get better values


     Computing stress (Cartesian axis) and pressure


     negative rho (up, down):  1.586E+00 0.000E+00
          total   stress  (Ry/bohr**3)                   (kbar)     P=      -99.13
  -0.00091710  -0.00001076   0.00001570         -134.91       -1.58        2.31
  -0.00001076  -0.00090466   0.00001121           -1.58     -133.08        1.65
   0.00001570   0.00001121  -0.00019977            2.31        1.65      -29.39

     kinetic stress (kbar)  35291.94     12.99     50.35
                               12.99  35279.39      9.83
                               50.35      9.83  36020.59

     local   stress (kbar)**********    474.47    360.81
                              474.47**********    -48.24
                              360.81    -48.241052473.53

     nonloc. stress (kbar)   -247.30      5.73      6.89
                                5.73   -252.09     -2.40
                                6.89     -2.40   -177.00

     hartree stress (kbar) 522671.00   -161.59   -118.50
                             -161.59 522798.89     13.40
                             -118.50     13.40-506438.57

     exc-cor stress (kbar)  26103.87     -0.27      0.08
                               -0.27  26104.06      0.10
                                0.08      0.10  26102.30

     corecor stress (kbar) -35990.06      0.02     -1.89
                                0.02 -35989.89     -0.74
                               -1.89     -0.74 -36020.62

     ewald   stress (kbar) 475219.16   -332.93   -295.43
                             -332.93 475484.91     29.70
                             -295.43     29.70-571989.61

     hubbard stress (kbar)      0.00      0.00      0.00
                                0.00      0.00      0.00
                                0.00      0.00      0.00

     DFT-D   stress (kbar)      0.00      0.00      0.00
                                0.00      0.00      0.00
                                0.00      0.00      0.00

     XDM     stress (kbar)      0.00      0.00      0.00
                                0.00      0.00      0.00
                                0.00      0.00      0.00

     dft-nl  stress (kbar)      0.00      0.00      0.00
                                0.00      0.00      0.00
                                0.00      0.00      0.00

     TS-vdW  stress (kbar)      0.00      0.00      0.00
                                0.00      0.00      0.00
                                0.00      0.00      0.00


     Energy error            =      2.0E-05
     Gradient error          =      7.8E-04

     bfgs converged in  31 scf cycles and  30 bfgs steps
     (criteria: energy <  1.0E-04 Ry, force <  1.0E-03 Ry/Bohr)

     End of BFGS Geometry Optimization

     Final energy   =   -1896.1943825223 Ry

     File ./surface.bfgs deleted, as requested
Begin final coordinates

ATOMIC_POSITIONS (angstrom)
Pt            0.5599830261        1.7112220716        4.4876458449
Pt            0.3392756511        1.7549092281       11.5361844368
Pt            0.8066165083        1.8358410060       18.6301482827
Pt            0.1307691119        0.0388258815       -0.2623064160
Pt            0.5981063091        0.1198043731        6.8317844072
Pt            0.3772839547        0.1634021686       13.8802890794
Pt            1.7851663022        0.8537866190        2.1423785477
Pt            1.8747128614        0.9373695435        9.1839924596
Pt            1.9640862753        1.0208391085       16.2255233577
End final coordinates



     Writing output data file ./surface.save/

     init_run     :      0.48s CPU      0.52s WALL (       1 calls)
     electrons    :   1129.86s CPU   1147.87s WALL (      31 calls)
     update_pot   :      3.94s CPU      3.98s WALL (      30 calls)
     forces       :      7.74s CPU      7.80s WALL (      31 calls)
     stress       :     23.31s CPU     23.44s WALL (      31 calls)

     Called by init_run:
     wfcinit      :      0.29s CPU      0.30s WALL (       1 calls)
     wfcinit:atom :      0.00s CPU      0.00s WALL (      10 calls)
     wfcinit:wfcr :      0.27s CPU      0.29s WALL (      10 calls)
     potinit      :      0.05s CPU      0.05s WALL (       1 calls)
     hinit0       :      0.09s CPU      0.10s WALL (       1 calls)

     Called by electrons:
     c_bands      :    884.40s CPU    898.50s WALL (    1412 calls)
     sum_band     :    177.02s CPU    179.97s WALL (    1412 calls)
     v_of_rho     :     17.42s CPU     17.57s WALL (    1443 calls)
     v_h          :      0.82s CPU      0.82s WALL (    1443 calls)
     v_xc         :     17.31s CPU     17.46s WALL (    1505 calls)
     newd         :     47.64s CPU     47.92s WALL (    1443 calls)
     mix_rho      :      2.42s CPU      2.44s WALL (    1412 calls)

     Called by c_bands:
     init_us_2    :      3.24s CPU      3.31s WALL (   28870 calls)
     cegterg      :    862.16s CPU    875.87s WALL (   14120 calls)

     Called by sum_band:
     sum_band:wei :      0.48s CPU      0.49s WALL (    1412 calls)
     sum_band:loo :    101.13s CPU    103.63s WALL (    1412 calls)
     sum_band:buf :      0.45s CPU      0.46s WALL (   14120 calls)
     sum_band:ini :      1.52s CPU      1.54s WALL (   14120 calls)
     sum_band:cal :     23.53s CPU     23.85s WALL (   14120 calls)
     sum_band:bec :      1.36s CPU      1.37s WALL (   14120 calls)
     addusdens    :     25.69s CPU     25.85s WALL (    1412 calls)
     addusd:skk   :      0.30s CPU      0.30s WALL (    1412 calls)
     addusd:dgemm :      6.75s CPU      6.81s WALL (    1412 calls)
     addusd:qvan2 :     15.02s CPU     15.11s WALL (    1412 calls)

     Called by *egterg:
     cdiaghg      :    234.90s CPU    236.58s WALL (   38436 calls)
     cegterg:over :     70.18s CPU     70.69s WALL (   24616 calls)
     cegterg:upda :     34.20s CPU     34.45s WALL (   24616 calls)
     cegterg:last :     52.76s CPU     53.12s WALL (   18518 calls)
     cdiaghg:chol :     11.06s CPU     11.17s WALL (   38436 calls)
     cdiaghg:inve :      9.69s CPU      9.78s WALL (   38436 calls)
     cdiaghg:para :     25.03s CPU     25.23s WALL (   76872 calls)
     h_psi        :    409.75s CPU    420.31s WALL (   38746 calls)
     s_psi        :     33.42s CPU     33.69s WALL (   38746 calls)
     g_psi        :      0.85s CPU      0.86s WALL (   24616 calls)

     Called by h_psi:
     h_psi:calbec :     62.37s CPU     63.18s WALL (   38746 calls)
     vloc_psi     :    311.76s CPU    321.28s WALL (   38746 calls)
     add_vuspsi   :     34.66s CPU     34.92s WALL (   38746 calls)

     General routines
     calbec       :     88.77s CPU     89.96s WALL (   54416 calls)
     fft          :     61.48s CPU     61.86s WALL (   19502 calls)
     ffts         :      0.48s CPU      0.48s WALL (    2855 calls)
     fftw         :    355.56s CPU    366.30s WALL ( 6480190 calls)
     interpolate  :      1.15s CPU      1.17s WALL (    1443 calls)

     Parallel routines
     fft_scatt_xy :     38.98s CPU     40.14s WALL ( 6502547 calls)
     fft_scatt_yz :    260.51s CPU    267.17s WALL ( 6502547 calls)

     PWSCF        :  19m26.88s CPU  19m46.73s WALL


   This run was terminated on:   4: 5:25  10Dec2021            

=------------------------------------------------------------------------------=
   JOB DONE.
=------------------------------------------------------------------------------=
