
     Program PWSCF v.6.7MaX starts on  6Dec2021 at 19: 3: 1 

     This program is part of the open-source Quantum ESPRESSO suite
     for quantum simulation of materials; please cite
         "P. Giannozzi et al., J. Phys.:Condens. Matter 21 395502 (2009);
         "P. Giannozzi et al., J. Phys.:Condens. Matter 29 465901 (2017);
          URL http://www.quantum-espresso.org", 
     in publications or presentations arising from this work. More details at
     http://www.quantum-espresso.org/quote

     Parallel version (MPI), running on    64 processors

     MPI processes distributed on     1 nodes
     R & G space division:  proc/nbgrp/npool/nimage =      64
     Reading input from ag_surface.111.qe.in

     Current dimensions of program PWSCF are:
     Max number of different atomic species (ntypx) = 10
     Max number of k-points (npk) =  40000
     Max angular momentum in pseudopotentials (lmaxx) =  3

     Subspace diagonalization in iterative solution of the eigenvalue problem:
     one sub-group per band group will be used
     scalapack distributed-memory algorithm (size of sub-group:  8*  8 procs)

     Found symmetry operation: I + ( -0.0000  0.3333  0.0000)
     This is a supercell, fractional translations are disabled

     Parallelization info
     --------------------
     sticks:   dense  smooth     PW     G-vecs:    dense   smooth      PW
     Min          89      35      9                10731     2707     375
     Max          90      36     10                10746     2720     388
     Sum        5731    2299    625               687293   173771   24323



     bravais-lattice index     =           14
     lattice parameter (alat)  =      16.6785  a.u.
     unit-cell volume          =    7833.0029 (a.u.)^3
     number of atoms/cell      =           27
     number of atomic types    =            1
     number of electrons       =       513.00
     number of Kohn-Sham states=          308
     kinetic-energy cutoff     =      30.0000  Ry
     charge density cutoff     =     300.0000  Ry
     scf convergence threshold =      1.0E-06
     mixing beta               =       0.3000
     number of iterations used =            8  plain     mixing
     energy convergence thresh.=      1.0E-04
     force convergence thresh. =      1.0E-03
     Exchange-correlation=  SLA  PW   PBX  PBC
                           (   1   4   3   4   0   0   0)
     nstep                     =           50


     celldm(1)=  16.678458  celldm(2)=   1.000000  celldm(3)=   1.949530
     celldm(4)=   0.000000  celldm(5)=   0.000000  celldm(6)=  -0.500000

     crystal axes: (cart. coord. in units of alat)
               a(1) = (   1.000000   0.000000   0.000000 )  
               a(2) = (  -0.500000   0.866025   0.000000 )  
               a(3) = (   0.000000   0.000000   1.949530 )  

     reciprocal axes: (cart. coord. in units 2 pi/alat)
               b(1) = (  1.000000  0.577350 -0.000000 )  
               b(2) = (  0.000000  1.154701  0.000000 )  
               b(3) = (  0.000000 -0.000000  0.512944 )  


     PseudoPot. # 1 for Ag read from file:
     /expanse/lustre/projects/csd622/tpascal/nano110/qe/pseudo/ag_pbe_v1.4.uspp.F.UPF
     MD5 check sum: d66d668201baa78d5eb5b04ef7011058
     Pseudo is Ultrasoft + core correction, Zval = 19.0
     Generated by new atomic code, or converted to UPF format
     Using radial grid of  887 points,  6 beta functions with: 
                l(1) =   0
                l(2) =   0
                l(3) =   1
                l(4) =   1
                l(5) =   2
                l(6) =   2
     Q(r) pseudized with  6 coefficients,  rinner =    1.300   1.300   1.300
                                                       1.300   1.300

     atomic species   valence    mass     pseudopotential
        Ag            19.00   107.86820     Ag( 1.00)

      6 Sym. Ops. (no inversion) found


                                    s                        frac. trans.

      isym =  1     identity                                     

 cryst.   s( 1) = (     1          0          0      )
                  (     0          1          0      )
                  (     0          0          1      )

 cart.    s( 1) = (  1.0000000  0.0000000  0.0000000 )
                  (  0.0000000  1.0000000  0.0000000 )
                  (  0.0000000  0.0000000  1.0000000 )


      isym =  2     120 deg rotation - cryst. axis [0,0,1]       

 cryst.   s( 2) = (     0          1          0      )
                  (    -1         -1          0      )
                  (     0          0          1      )

 cart.    s( 2) = ( -0.5000000 -0.8660254  0.0000000 )
                  (  0.8660254 -0.5000000  0.0000000 )
                  (  0.0000000  0.0000000  1.0000000 )


      isym =  3     120 deg rotation - cryst. axis [0,0,-1]      

 cryst.   s( 3) = (    -1         -1          0      )
                  (     1          0          0      )
                  (     0          0          1      )

 cart.    s( 3) = ( -0.5000000  0.8660254  0.0000000 )
                  ( -0.8660254 -0.5000000  0.0000000 )
                  (  0.0000000  0.0000000  1.0000000 )


      isym =  4     inv. 180 deg rotation - cart. axis [1,0,0]   

 cryst.   s( 4) = (    -1          0          0      )
                  (     1          1          0      )
                  (     0          0          1      )

 cart.    s( 4) = ( -1.0000000  0.0000000  0.0000000 )
                  (  0.0000000  1.0000000  0.0000000 )
                  (  0.0000000  0.0000000  1.0000000 )


      isym =  5     inv. 180 deg rotation - cryst. axis [0,1,0]  

 cryst.   s( 5) = (     1          1          0      )
                  (     0         -1          0      )
                  (     0          0          1      )

 cart.    s( 5) = (  0.5000000  0.8660254  0.0000000 )
                  (  0.8660254 -0.5000000  0.0000000 )
                  (  0.0000000  0.0000000  1.0000000 )


      isym =  6     inv. 180 deg rotation - cryst. axis [1,1,0]  

 cryst.   s( 6) = (     0         -1          0      )
                  (    -1          0          0      )
                  (     0          0          1      )

 cart.    s( 6) = (  0.5000000 -0.8660254  0.0000000 )
                  ( -0.8660254 -0.5000000  0.0000000 )
                  (  0.0000000  0.0000000  1.0000000 )


     point group C_3v (3m)  
     there are  3 classes
     the character table:

       E     2C3   3s_v 
A_1    1.00  1.00  1.00
A_2    1.00  1.00 -1.00
E      2.00 -1.00  0.00

     the symmetry operations in each class and the name of the first element:

     E        1
          identity                                               
     2C3      2    3
          120 deg rotation - cryst. axis [0,0,1]                 
     3s_v     4    5    6
          inv. 180 deg rotation - cart. axis [1,0,0]             

   Cartesian axes

     site n.     atom                  positions (alat units)
         1           Ag  tau(   1) = (  -0.0000002   0.1924501   0.5443311  )
         2           Ag  tau(   2) = (   0.0000000   0.0000000   0.0000000  )
         3           Ag  tau(   3) = (   0.1666668   0.0962249   0.2721651  )
         4           Ag  tau(   4) = (  -0.1666668   0.4811251   0.5443311  )
         5           Ag  tau(   5) = (  -0.1666666   0.2886750   0.0000000  )
         6           Ag  tau(   6) = (   0.0000002   0.3848999   0.2721651  )
         7           Ag  tau(   7) = (  -0.3333333   0.7698001   0.5443311  )
         8           Ag  tau(   8) = (  -0.3333332   0.5773500   0.0000000  )
         9           Ag  tau(   9) = (  -0.1666664   0.6735749   0.2721651  )
        10           Ag  tau(  10) = (   0.3333330   0.1924501   0.5443311  )
        11           Ag  tau(  11) = (   0.3333332   0.0000000   0.0000000  )
        12           Ag  tau(  12) = (   0.4999999   0.0962249   0.2721651  )
        13           Ag  tau(  13) = (   0.1666664   0.4811251   0.5443311  )
        14           Ag  tau(  14) = (   0.1666666   0.2886750   0.0000000  )
        15           Ag  tau(  15) = (   0.3333333   0.3848999   0.2721651  )
        16           Ag  tau(  16) = (  -0.0000002   0.7698001   0.5443311  )
        17           Ag  tau(  17) = (   0.0000000   0.5773500   0.0000000  )
        18           Ag  tau(  18) = (   0.1666668   0.6735749   0.2721651  )
        19           Ag  tau(  19) = (   0.6666662   0.1924501   0.5443311  )
        20           Ag  tau(  20) = (   0.6666664   0.0000000   0.0000000  )
        21           Ag  tau(  21) = (   0.8333331   0.0962249   0.2721651  )
        22           Ag  tau(  22) = (   0.4999996   0.4811251   0.5443311  )
        23           Ag  tau(  23) = (   0.4999998   0.2886750   0.0000000  )
        24           Ag  tau(  24) = (   0.6666665   0.3848999   0.2721651  )
        25           Ag  tau(  25) = (   0.3333330   0.7698001   0.5443311  )
        26           Ag  tau(  26) = (   0.3333332   0.5773500   0.0000000  )
        27           Ag  tau(  27) = (   0.4999999   0.6735749   0.2721651  )

   Crystallographic axes

     site n.     atom                  positions (cryst. coord.)
         1           Ag  tau(   1) = (  0.1111109  0.2222222  0.2792114  )
         2           Ag  tau(   2) = (  0.0000000  0.0000000  0.0000000  )
         3           Ag  tau(   3) = (  0.2222222  0.1111109  0.1396055  )
         4           Ag  tau(   4) = (  0.1111109  0.5555554  0.2792114  )
         5           Ag  tau(   5) = ( -0.0000000  0.3333332  0.0000000  )
         6           Ag  tau(   6) = (  0.2222222  0.4444441  0.1396055  )
         7           Ag  tau(   7) = (  0.1111109  0.8888886  0.2792114  )
         8           Ag  tau(   8) = ( -0.0000000  0.6666664  0.0000000  )
         9           Ag  tau(   9) = (  0.2222222  0.7777773  0.1396055  )
        10           Ag  tau(  10) = (  0.4444441  0.2222222  0.2792114  )
        11           Ag  tau(  11) = (  0.3333332  0.0000000  0.0000000  )
        12           Ag  tau(  12) = (  0.5555554  0.1111109  0.1396055  )
        13           Ag  tau(  13) = (  0.4444441  0.5555554  0.2792114  )
        14           Ag  tau(  14) = (  0.3333332  0.3333332  0.0000000  )
        15           Ag  tau(  15) = (  0.5555554  0.4444441  0.1396055  )
        16           Ag  tau(  16) = (  0.4444441  0.8888886  0.2792114  )
        17           Ag  tau(  17) = (  0.3333332  0.6666664  0.0000000  )
        18           Ag  tau(  18) = (  0.5555554  0.7777773  0.1396055  )
        19           Ag  tau(  19) = (  0.7777773  0.2222222  0.2792114  )
        20           Ag  tau(  20) = (  0.6666664  0.0000000  0.0000000  )
        21           Ag  tau(  21) = (  0.8888886  0.1111109  0.1396055  )
        22           Ag  tau(  22) = (  0.7777773  0.5555554  0.2792114  )
        23           Ag  tau(  23) = (  0.6666664  0.3333332  0.0000000  )
        24           Ag  tau(  24) = (  0.8888886  0.4444441  0.1396055  )
        25           Ag  tau(  25) = (  0.7777773  0.8888886  0.2792114  )
        26           Ag  tau(  26) = (  0.6666664  0.6666664  0.0000000  )
        27           Ag  tau(  27) = (  0.8888886  0.7777773  0.1396055  )

     number of k points=     4  Gaussian smearing, width (Ry)=  0.0030
                       cart. coord. in units 2pi/alat
        k(    1) = (   0.0000000   0.0000000   0.0000000), wk =   0.1250000
        k(    2) = (   0.0000000   0.2886751   0.0000000), wk =   0.7500000
        k(    3) = (   0.0000000  -0.5773503   0.0000000), wk =   0.3750000
        k(    4) = (   0.2500000   0.4330127   0.0000000), wk =   0.7500000

                       cryst. coord.
        k(    1) = (   0.0000000   0.0000000   0.0000000), wk =   0.1250000
        k(    2) = (   0.0000000   0.2500000   0.0000000), wk =   0.7500000
        k(    3) = (   0.0000000  -0.5000000   0.0000000), wk =   0.3750000
        k(    4) = (   0.2500000   0.2500000   0.0000000), wk =   0.7500000

     Dense  grid:   687293 G-vectors     FFT dimensions: (  96,  96, 180)

     Smooth grid:   173771 G-vectors     FFT dimensions: (  60,  60, 120)

     Dynamical RAM for                 wfc:       1.59 MB

     Dynamical RAM for     wfc (w. buffer):       7.97 MB

     Dynamical RAM for           str. fact:       0.16 MB

     Dynamical RAM for           local pot:       0.00 MB

     Dynamical RAM for          nlocal pot:       2.51 MB

     Dynamical RAM for                qrad:       1.39 MB

     Dynamical RAM for          rho,v,vnew:       1.12 MB

     Dynamical RAM for               rhoin:       0.37 MB

     Dynamical RAM for            rho*nmix:       2.62 MB

     Dynamical RAM for           G-vectors:       0.63 MB

     Dynamical RAM for          h,s,v(r/c):       0.27 MB

     Dynamical RAM for          <psi|beta>:       2.28 MB

     Dynamical RAM for                 psi:       3.19 MB

     Dynamical RAM for                hpsi:       3.19 MB

     Dynamical RAM for                spsi:       3.19 MB

     Dynamical RAM for      wfcinit/wfcrot:       6.45 MB

     Dynamical RAM for           addusdens:      34.89 MB

     Dynamical RAM for          addusforce:      43.60 MB

     Dynamical RAM for         addusstress:      32.92 MB

     Estimated static dynamical RAM per process >      18.17 MB

     Estimated max dynamical RAM per process >      61.77 MB

     Estimated total dynamical RAM >       3.86 GB

     Initial potential from superposition of free atoms

     starting charge  499.49872, renormalised to  513.00000

     negative rho (up, down):  6.378E-03 0.000E+00
     Starting wfcs are  351 randomized atomic wfcs

     total cpu time spent up to now is        1.8 secs

     Self-consistent Calculation

     iteration #  1     ecut=    30.00 Ry     beta= 0.30
     Davidson diagonalization with overlap
     ethr =  1.00E-02,  avg # of iterations =  6.2

     negative rho (up, down):  2.107E-04 0.000E+00

     total cpu time spent up to now is        7.1 secs

     total energy              =   -7972.24684797 Ry
     estimated scf accuracy    <      42.13897250 Ry

     iteration #  2     ecut=    30.00 Ry     beta= 0.30
     Davidson diagonalization with overlap
     ethr =  8.21E-03,  avg # of iterations =  4.0

     negative rho (up, down):  5.091E-04 0.000E+00

     total cpu time spent up to now is       11.4 secs

     total energy              =   -7979.53342525 Ry
     estimated scf accuracy    <       7.21824154 Ry

     iteration #  3     ecut=    30.00 Ry     beta= 0.30
     Davidson diagonalization with overlap
     ethr =  1.41E-03,  avg # of iterations =  3.8

     negative rho (up, down):  8.918E-04 0.000E+00

     total cpu time spent up to now is       15.2 secs

     total energy              =   -7980.80910634 Ry
     estimated scf accuracy    <       2.14937986 Ry

     iteration #  4     ecut=    30.00 Ry     beta= 0.30
     Davidson diagonalization with overlap
     ethr =  4.19E-04,  avg # of iterations =  3.0

     negative rho (up, down):  1.674E-03 0.000E+00

     total cpu time spent up to now is       18.6 secs

     total energy              =   -7981.10539608 Ry
     estimated scf accuracy    <       0.10868280 Ry

     iteration #  5     ecut=    30.00 Ry     beta= 0.30
     Davidson diagonalization with overlap
     ethr =  2.12E-05,  avg # of iterations =  9.0

     negative rho (up, down):  3.969E-03 0.000E+00

     total cpu time spent up to now is       22.9 secs

     total energy              =   -7981.11366252 Ry
     estimated scf accuracy    <       0.01555810 Ry

     iteration #  6     ecut=    30.00 Ry     beta= 0.30
     Davidson diagonalization with overlap
     ethr =  3.03E-06,  avg # of iterations = 10.5

     negative rho (up, down):  4.853E-03 0.000E+00

     total cpu time spent up to now is       27.8 secs

     total energy              =   -7981.11454820 Ry
     estimated scf accuracy    <       0.00116604 Ry

     iteration #  7     ecut=    30.00 Ry     beta= 0.30
     Davidson diagonalization with overlap
     ethr =  2.27E-07,  avg # of iterations =  2.0

     negative rho (up, down):  5.265E-03 0.000E+00

     total cpu time spent up to now is       31.0 secs

     total energy              =   -7981.11456190 Ry
     estimated scf accuracy    <       0.00163734 Ry

     iteration #  8     ecut=    30.00 Ry     beta= 0.30
     Davidson diagonalization with overlap
     ethr =  2.27E-07,  avg # of iterations =  1.0

     negative rho (up, down):  5.351E-03 0.000E+00

     total cpu time spent up to now is       33.7 secs

     total energy              =   -7981.11468562 Ry
     estimated scf accuracy    <       0.00012343 Ry

     iteration #  9     ecut=    30.00 Ry     beta= 0.30
     Davidson diagonalization with overlap
     ethr =  2.41E-08,  avg # of iterations =  2.0

     negative rho (up, down):  5.441E-03 0.000E+00

     total cpu time spent up to now is       36.9 secs

     total energy              =   -7981.11468378 Ry
     estimated scf accuracy    <       0.00003443 Ry

     iteration # 10     ecut=    30.00 Ry     beta= 0.30
     Davidson diagonalization with overlap
     ethr =  6.71E-09,  avg # of iterations =  2.0

     negative rho (up, down):  5.486E-03 0.000E+00

     total cpu time spent up to now is       40.3 secs

     total energy              =   -7981.11468963 Ry
     estimated scf accuracy    <       0.00000283 Ry

     iteration # 11     ecut=    30.00 Ry     beta= 0.30
     Davidson diagonalization with overlap
     ethr =  5.52E-10,  avg # of iterations =  2.0

     negative rho (up, down):  5.523E-03 0.000E+00

     total cpu time spent up to now is       43.5 secs

     total energy              =   -7981.11468969 Ry
     estimated scf accuracy    <       0.00000154 Ry

     iteration # 12     ecut=    30.00 Ry     beta= 0.30
     Davidson diagonalization with overlap
     ethr =  3.01E-10,  avg # of iterations =  2.0

     negative rho (up, down):  5.546E-03 0.000E+00

     total cpu time spent up to now is       46.6 secs

     End of self-consistent calculation

          k = 0.0000 0.0000 0.0000 ( 21795 PWs)   bands (ev):

   -87.6517 -87.6451 -87.6451 -87.6451 -87.6450 -87.6450 -87.6449 -87.6417
   -87.6417 -87.4276 -87.4276 -87.4212 -87.4211 -87.4211 -87.4211 -87.4211
   -87.4211 -87.4211 -87.4211 -87.4210 -87.4210 -87.4210 -87.4210 -87.4178
   -87.4178 -87.4177 -87.4177 -51.1414 -51.1414 -51.1414 -51.1413 -51.1413
   -51.1413 -51.1367 -51.1367 -51.1367 -51.1367 -51.1274 -51.1152 -51.1152
   -51.1152 -51.1151 -51.1151 -51.1150 -51.1093 -51.1093 -51.0851 -51.0850
   -51.0850 -51.0850 -51.0849 -51.0849 -51.0664 -51.0664 -50.9184 -50.9184
   -50.9184 -50.9183 -50.9183 -50.9183 -50.9158 -50.9158 -50.9158 -50.9157
   -50.9157 -50.9157 -50.9141 -50.9141 -50.9135 -50.9135 -50.9134 -50.9134
   -50.9104 -50.9104 -50.8862 -50.8785 -50.8770 -50.8769 -50.8769 -50.8769
   -50.8769 -50.8768 -50.8746 -50.8746 -50.8746 -50.8746 -50.8746 -50.8745
   -50.8729 -50.8729 -50.8729 -50.8729 -50.8636 -50.8636 -50.8636 -50.8636
   -50.8635 -50.8635 -50.8631 -50.8631 -50.8631 -50.8630 -50.8630 -50.8630
   -50.8452 -50.8452 -50.8450 -50.8450  -2.5779  -1.6450  -1.5239  -1.4542
    -1.4542  -1.4542  -1.4542  -1.4542  -1.4541  -1.2720  -1.2720  -1.2719
    -1.2719  -1.2719  -1.2719  -1.1603  -1.1603  -1.1602  -1.1602  -1.1602
    -1.1602  -0.9540  -0.9540  -0.9540  -0.9540  -0.9458  -0.9458  -0.9458
    -0.9457  -0.9457  -0.9457  -0.9050  -0.9050  -0.5609  -0.5609  -0.5609
    -0.5609  -0.3791  -0.3791  -0.3791  -0.3791  -0.3791  -0.3791  -0.3299
    -0.3027  -0.3027  -0.2517  -0.2517  -0.2516  -0.2516  -0.2516  -0.2516
    -0.1077  -0.1077  -0.1040  -0.1040   0.0170   0.0170   0.0201   0.0201
     0.0201   0.0202   0.0202   0.0202   0.1026   0.1026   0.1092   0.1092
     0.1161   0.1161   0.1162   0.1162   0.1528   0.1528   0.1528   0.1528
     0.1528   0.1529   0.3392   0.6001   0.6001   0.6001   0.6001   0.6293
     0.6293   0.6293   0.6294   0.6294   0.6294   0.6297   0.6297   0.6725
     0.6725   0.6725   0.6726   0.6726   0.6726   0.8329   0.8329   0.8329
     0.8329   0.8329   0.8330   0.9277   0.9277   0.9412   0.9412   0.9412
     0.9413   0.9413   0.9413   1.0885   1.0885   1.0886   1.0886   1.0907
     1.0908   1.0908   1.0908   1.0908   1.0908   1.1366   1.1366   1.1366
     1.1366   1.1366   1.1366   1.1964   1.1964   1.2322   1.2322   1.2938
     1.2938   1.2938   1.2938   1.2939   1.2939   1.5220   1.5220   1.5221
     1.5221   1.5221   1.5221   2.9159   2.9590   2.9590   2.9590   2.9591
     2.9591   2.9591   4.6991   5.5083   5.5083   5.5083   5.5084   5.5084
     5.5084   7.7607   7.7607   7.7607   7.7607   7.8619   7.8654   7.8654
     8.4182   8.4183   8.4183   8.4183   8.4183   8.4184   8.7817   8.7817
     8.9646   9.5570   9.5570   9.5571   9.5571   9.5887  10.2403  10.2403
    10.2403  10.2403  10.2403  10.2404  10.8899  10.8899  10.8899  10.8899
    10.8899  10.8899  11.0029  11.0029  11.0030  11.0030  11.6644  11.6644
    11.6644  11.6644  11.6645  11.6645

     occupation numbers 
     1.0000   1.0000   1.0000   1.0000   1.0000   1.0000   1.0000   1.0000
     1.0000   1.0000   1.0000   1.0000   1.0000   1.0000   1.0000   1.0000
     1.0000   1.0000   1.0000   1.0000   1.0000   1.0000   1.0000   1.0000
     1.0000   1.0000   1.0000   1.0000   1.0000   1.0000   1.0000   1.0000
     1.0000   1.0000   1.0000   1.0000   1.0000   1.0000   1.0000   1.0000
     1.0000   1.0000   1.0000   1.0000   1.0000   1.0000   1.0000   1.0000
     1.0000   1.0000   1.0000   1.0000   1.0000   1.0000   1.0000   1.0000
     1.0000   1.0000   1.0000   1.0000   1.0000   1.0000   1.0000   1.0000
     1.0000   1.0000   1.0000   1.0000   1.0000   1.0000   1.0000   1.0000
     1.0000   1.0000   1.0000   1.0000   1.0000   1.0000   1.0000   1.0000
     1.0000   1.0000   1.0000   1.0000   1.0000   1.0000   1.0000   1.0000
     1.0000   1.0000   1.0000   1.0000   1.0000   1.0000   1.0000   1.0000
     1.0000   1.0000   1.0000   1.0000   1.0000   1.0000   1.0000   1.0000
     1.0000   1.0000   1.0000   1.0000   1.0000   1.0000   1.0000   1.0000
     1.0000   1.0000   1.0000   1.0000   1.0000   1.0000   1.0000   1.0000
     1.0000   1.0000   1.0000   1.0000   1.0000   1.0000   1.0000   1.0000
     1.0000   1.0000   1.0000   1.0000   1.0000   1.0000   1.0000   1.0000
     1.0000   1.0000   1.0000   1.0000   1.0000   1.0000   1.0000   1.0000
     1.0000   1.0000   1.0000   1.0000   1.0000   1.0000   1.0000   1.0000
     1.0000   1.0000   1.0000   1.0000   1.0000   1.0000   1.0000   1.0000
     1.0000   1.0000   1.0000   1.0000   1.0000   1.0000   1.0000   1.0000
     1.0000   1.0000   1.0000   1.0000   1.0000   1.0000   1.0000   1.0000
     1.0000   1.0000   1.0000   1.0000   1.0000   1.0000   1.0000   1.0000
     1.0000   1.0000   1.0000   1.0000   1.0000   1.0000   1.0000   1.0000
     1.0000   1.0000   1.0000   1.0000   1.0000   1.0000   1.0000   1.0000
     1.0000   1.0000   1.0000   1.0000   1.0000   1.0000   1.0000   1.0000
     1.0000   1.0000   1.0000   1.0000   1.0000   1.0000   1.0000   1.0000
     1.0000   1.0000   1.0000   1.0000   1.0000   1.0000   1.0000   1.0000
     1.0000   1.0000   1.0000   1.0000   1.0000   1.0000   1.0000   1.0000
     1.0000   1.0000   1.0000   1.0000   1.0000   1.0000   1.0000   1.0000
     1.0000   1.0000   1.0000   1.0000   1.0000   1.0000   1.0000   1.0000
     1.0000   1.0000   1.0000   1.0000   1.0000   1.0000   1.0000   1.0000
     1.0000   1.0000   0.0000   0.0000   0.0000   0.0000   0.0000   0.0000
     0.0000   0.0000   0.0000   0.0000   0.0000   0.0000   0.0000   0.0000
     0.0000   0.0000   0.0000   0.0000   0.0000   0.0000   0.0000   0.0000
     0.0000   0.0000   0.0000   0.0000   0.0000   0.0000   0.0000   0.0000
     0.0000   0.0000   0.0000   0.0000   0.0000   0.0000   0.0000   0.0000
     0.0000   0.0000   0.0000   0.0000   0.0000   0.0000   0.0000   0.0000
     0.0000   0.0000   0.0000   0.0000

          k = 0.0000 0.2887 0.0000 ( 21761 PWs)   bands (ev):

   -87.6511 -87.6472 -87.6458 -87.6458 -87.6439 -87.6439 -87.6434 -87.6420
   -87.6420 -87.4271 -87.4270 -87.4233 -87.4232 -87.4219 -87.4219 -87.4218
   -87.4218 -87.4200 -87.4200 -87.4199 -87.4199 -87.4195 -87.4194 -87.4181
   -87.4181 -87.4180 -87.4180 -51.1594 -51.1502 -51.1502 -51.1489 -51.1489
   -51.1301 -51.1301 -51.1264 -51.1203 -51.1203 -51.1189 -51.1163 -51.1163
   -51.1160 -51.1129 -51.1129 -51.1126 -51.1099 -51.1099 -51.0912 -51.0912
   -51.0894 -51.0846 -51.0846 -51.0787 -51.0730 -51.0678 -50.9360 -50.9328
   -50.9270 -50.9270 -50.9257 -50.9257 -50.9242 -50.9242 -50.9235 -50.9235
   -50.9072 -50.9072 -50.9054 -50.9054 -50.8978 -50.8978 -50.8964 -50.8964
   -50.8934 -50.8925 -50.8857 -50.8796 -50.8785 -50.8777 -50.8777 -50.8757
   -50.8757 -50.8756 -50.8756 -50.8751 -50.8751 -50.8736 -50.8735 -50.8734
   -50.8734 -50.8733 -50.8729 -50.8729 -50.8695 -50.8695 -50.8691 -50.8690
   -50.8677 -50.8674 -50.8631 -50.8631 -50.8626 -50.8626 -50.8575 -50.8566
   -50.8516 -50.8511 -50.8468 -50.8461  -2.3983  -1.5774  -1.5290  -1.4700
    -1.4163  -1.4163  -1.4110  -1.3678  -1.3079  -1.3021  -1.3021  -1.2783
    -1.2783  -1.2097  -1.2097  -1.1830  -1.1434  -1.1434  -1.1345  -1.1345
    -1.1031  -1.0184  -1.0184  -0.9664  -0.9664  -0.9307  -0.9307  -0.8955
    -0.8903  -0.8903  -0.7606  -0.7515  -0.7515  -0.7399  -0.7399  -0.4837
    -0.4633  -0.4633  -0.4443  -0.4156  -0.4155  -0.3661  -0.3564  -0.3564
    -0.3531  -0.3254  -0.3233  -0.3232  -0.2994  -0.2994  -0.2615  -0.2615
    -0.2536  -0.2162  -0.2092  -0.0771  -0.0771  -0.0491  -0.0491  -0.0473
    -0.0416  -0.0287  -0.0286  -0.0095   0.0284   0.0284   0.0605   0.0605
     0.0882   0.1005   0.1072   0.2074   0.2074   0.2148   0.3073   0.3228
     0.3228   0.3269   0.3269   0.3897   0.4002   0.4123   0.4123   0.4782
     0.4782   0.5001   0.5231   0.5231   0.5910   0.5989   0.5989   0.6030
     0.6094   0.6094   0.6598   0.6626   0.6777   0.6777   0.6991   0.6991
     0.7218   0.7405   0.7405   0.7617   0.8153   0.8273   0.8644   0.8644
     0.8954   0.8954   0.9103   0.9255   0.9686   0.9686   1.0302   1.0302
     1.0572   1.0572   1.0728   1.0728   1.1322   1.1559   1.1560   1.1560
     1.2118   1.2258   1.2258   1.2362   1.2542   1.2566   1.2767   1.2767
     1.3093   1.3093   1.3413   1.3413   1.4214   1.4214   1.4387   1.4614
     1.9680   2.5971   2.5971   2.6248   2.6248   3.1366   3.1421   3.9100
     3.9100   4.4168   4.4793   5.0424   5.1068   5.1068   5.8261   5.8261
     6.2796   6.2796   6.5484   7.0858   7.1288   7.1288   7.9016   7.9016
     7.9380   7.9380   8.0115   8.5310   9.1349   9.1532   9.1532   9.2104
     9.2868   9.2868   9.4346   9.6315   9.6315   9.7175   9.7791   9.7791
     9.8141   9.8141  10.0328  10.0328  10.2333  10.4835  10.7961  10.8858
    10.8858  11.1393  11.1393  11.1717  11.1717  11.3500  11.3500  11.3567
    11.3567  11.6920  11.6920  11.7080

     occupation numbers 
     1.0000   1.0000   1.0000   1.0000   1.0000   1.0000   1.0000   1.0000
     1.0000   1.0000   1.0000   1.0000   1.0000   1.0000   1.0000   1.0000
     1.0000   1.0000   1.0000   1.0000   1.0000   1.0000   1.0000   1.0000
     1.0000   1.0000   1.0000   1.0000   1.0000   1.0000   1.0000   1.0000
     1.0000   1.0000   1.0000   1.0000   1.0000   1.0000   1.0000   1.0000
     1.0000   1.0000   1.0000   1.0000   1.0000   1.0000   1.0000   1.0000
     1.0000   1.0000   1.0000   1.0000   1.0000   1.0000   1.0000   1.0000
     1.0000   1.0000   1.0000   1.0000   1.0000   1.0000   1.0000   1.0000
     1.0000   1.0000   1.0000   1.0000   1.0000   1.0000   1.0000   1.0000
     1.0000   1.0000   1.0000   1.0000   1.0000   1.0000   1.0000   1.0000
     1.0000   1.0000   1.0000   1.0000   1.0000   1.0000   1.0000   1.0000
     1.0000   1.0000   1.0000   1.0000   1.0000   1.0000   1.0000   1.0000
     1.0000   1.0000   1.0000   1.0000   1.0000   1.0000   1.0000   1.0000
     1.0000   1.0000   1.0000   1.0000   1.0000   1.0000   1.0000   1.0000
     1.0000   1.0000   1.0000   1.0000   1.0000   1.0000   1.0000   1.0000
     1.0000   1.0000   1.0000   1.0000   1.0000   1.0000   1.0000   1.0000
     1.0000   1.0000   1.0000   1.0000   1.0000   1.0000   1.0000   1.0000
     1.0000   1.0000   1.0000   1.0000   1.0000   1.0000   1.0000   1.0000
     1.0000   1.0000   1.0000   1.0000   1.0000   1.0000   1.0000   1.0000
     1.0000   1.0000   1.0000   1.0000   1.0000   1.0000   1.0000   1.0000
     1.0000   1.0000   1.0000   1.0000   1.0000   1.0000   1.0000   1.0000
     1.0000   1.0000   1.0000   1.0000   1.0000   1.0000   1.0000   1.0000
     1.0000   1.0000   1.0000   1.0000   1.0000   1.0000   1.0000   1.0000
     1.0000   1.0000   1.0000   1.0000   1.0000   1.0000   1.0000   1.0000
     1.0000   1.0000   1.0000   1.0000   1.0000   1.0000   1.0000   1.0000
     1.0000   1.0000   1.0000   1.0000   1.0000   1.0000   1.0000   1.0000
     1.0000   1.0000   1.0000   1.0000   1.0000   1.0000   1.0000   1.0000
     1.0000   1.0000   1.0000   1.0000   1.0000   1.0000   1.0000   1.0000
     1.0000   1.0000   1.0000   1.0000   1.0000   1.0000   1.0000   1.0000
     1.0000   1.0000   1.0000   1.0000   1.0000   1.0000   1.0000   1.0000
     1.0000   1.0000   1.0000   1.0000   1.0000   1.0000   1.0000   1.0000
     1.0000   1.0000   1.0000   1.0000   1.0000   1.0000   1.0000   1.0000
     1.0000   0.0000   0.0000   0.0000   0.0000   0.0000   0.0000   0.0000
     0.0000   0.0000   0.0000   0.0000   0.0000   0.0000   0.0000   0.0000
     0.0000   0.0000   0.0000   0.0000   0.0000   0.0000   0.0000   0.0000
     0.0000   0.0000   0.0000   0.0000   0.0000   0.0000   0.0000   0.0000
     0.0000   0.0000   0.0000   0.0000   0.0000   0.0000   0.0000   0.0000
     0.0000   0.0000   0.0000   0.0000   0.0000   0.0000   0.0000   0.0000
     0.0000   0.0000   0.0000   0.0000

          k = 0.0000-0.5774 0.0000 ( 21688 PWs)   bands (ev):

   -87.6495 -87.6494 -87.6461 -87.6461 -87.6429 -87.6428 -87.6428 -87.6427
   -87.6427 -87.4255 -87.4254 -87.4254 -87.4253 -87.4222 -87.4222 -87.4221
   -87.4221 -87.4190 -87.4189 -87.4189 -87.4189 -87.4189 -87.4188 -87.4188
   -87.4188 -87.4188 -87.4187 -51.1666 -51.1534 -51.1534 -51.1533 -51.1533
   -51.1238 -51.1238 -51.1234 -51.1233 -51.1169 -51.1169 -51.1114 -51.1112
   -51.1112 -51.1111 -51.1111 -51.1036 -51.1036 -51.1036 -51.1035 -51.0915
   -51.0905 -51.0905 -51.0860 -51.0860 -51.0721 -51.0720 -50.9430 -50.9397
   -50.9302 -50.9302 -50.9301 -50.9301 -50.9272 -50.9272 -50.9272 -50.9271
   -50.9011 -50.9011 -50.8994 -50.8994 -50.8834 -50.8833 -50.8812 -50.8812
   -50.8812 -50.8811 -50.8811 -50.8810 -50.8810 -50.8810 -50.8779 -50.8779
   -50.8777 -50.8776 -50.8753 -50.8753 -50.8750 -50.8743 -50.8742 -50.8742
   -50.8742 -50.8729 -50.8729 -50.8729 -50.8728 -50.8719 -50.8699 -50.8694
   -50.8684 -50.8684 -50.8676 -50.8676 -50.8643 -50.8643 -50.8638 -50.8638
   -50.8510 -50.8510 -50.8501 -50.8501  -1.9218  -1.9217  -1.6307  -1.4743
    -1.3529  -1.2693  -1.2692  -1.2491  -1.2491  -1.2490  -1.2490  -1.2040
    -1.2040  -1.2039  -1.2039  -1.1620  -1.1470  -1.1470  -1.0996  -1.0996
    -1.0996  -1.0995  -1.0045  -1.0044  -0.9158  -0.9158  -0.8557  -0.8557
    -0.8407  -0.8407  -0.7367  -0.7367  -0.7366  -0.7366  -0.5449  -0.5449
    -0.5448  -0.5448  -0.5362  -0.5362  -0.5226  -0.4500  -0.4500  -0.4000
    -0.3407  -0.3407  -0.3320  -0.3320  -0.2750  -0.2749  -0.2150  -0.2150
    -0.2150  -0.2150  -0.1838  -0.1838  -0.1837  -0.1837  -0.1693  -0.1693
    -0.1420  -0.1420  -0.0730   0.0068   0.0068   0.0128   0.0128   0.0524
     0.0525   0.1120   0.1121   0.1208   0.1208   0.1266   0.1266   0.1266
     0.1266   0.1717   0.1717   0.3603   0.3604   0.4845   0.4845   0.4845
     0.4845   0.4867   0.4904   0.4904   0.5475   0.5475   0.5959   0.5960
     0.6341   0.6341   0.6341   0.6341   0.6489   0.6489   0.6553   0.6917
     0.6917   0.6917   0.6917   0.7089   0.7089   0.8568   0.8568   0.8573
     0.8574   0.8574   0.8574   0.8798   0.9098   0.9098   1.0097   1.0097
     1.0097   1.0097   1.0682   1.0683   1.1669   1.1824   1.1824   1.2454
     1.2455   1.2594   1.2594   1.2594   1.2595   1.2605   1.3349   1.4052
     1.4052   1.4052   1.4052   1.4336   1.4336   1.4616   1.4616   1.5481
     1.5675   2.5318   2.5318   3.6912   3.6913   4.0958   4.0958   4.0958
     4.0958   4.6297   4.9869   4.9869   5.3633   5.3633   5.3633   5.3633
     5.4758   5.8707   5.9119   5.9120   7.4044   7.4044   7.4044   7.4044
     7.7249   7.7249   8.1189   8.4605   8.4605   8.8376   8.8376   8.8377
     8.8377   8.9350   9.6443   9.6444   9.6679   9.6679   9.6873   9.9226
     9.9226   9.9227   9.9227  10.1132  10.1133  10.7145  10.7145  10.7145
    10.7145  10.9910  10.9910  11.2284  11.2284  12.0989  12.1772  12.1782
    12.1785  12.1787  12.2409  12.4964

     occupation numbers 
     1.0000   1.0000   1.0000   1.0000   1.0000   1.0000   1.0000   1.0000
     1.0000   1.0000   1.0000   1.0000   1.0000   1.0000   1.0000   1.0000
     1.0000   1.0000   1.0000   1.0000   1.0000   1.0000   1.0000   1.0000
     1.0000   1.0000   1.0000   1.0000   1.0000   1.0000   1.0000   1.0000
     1.0000   1.0000   1.0000   1.0000   1.0000   1.0000   1.0000   1.0000
     1.0000   1.0000   1.0000   1.0000   1.0000   1.0000   1.0000   1.0000
     1.0000   1.0000   1.0000   1.0000   1.0000   1.0000   1.0000   1.0000
     1.0000   1.0000   1.0000   1.0000   1.0000   1.0000   1.0000   1.0000
     1.0000   1.0000   1.0000   1.0000   1.0000   1.0000   1.0000   1.0000
     1.0000   1.0000   1.0000   1.0000   1.0000   1.0000   1.0000   1.0000
     1.0000   1.0000   1.0000   1.0000   1.0000   1.0000   1.0000   1.0000
     1.0000   1.0000   1.0000   1.0000   1.0000   1.0000   1.0000   1.0000
     1.0000   1.0000   1.0000   1.0000   1.0000   1.0000   1.0000   1.0000
     1.0000   1.0000   1.0000   1.0000   1.0000   1.0000   1.0000   1.0000
     1.0000   1.0000   1.0000   1.0000   1.0000   1.0000   1.0000   1.0000
     1.0000   1.0000   1.0000   1.0000   1.0000   1.0000   1.0000   1.0000
     1.0000   1.0000   1.0000   1.0000   1.0000   1.0000   1.0000   1.0000
     1.0000   1.0000   1.0000   1.0000   1.0000   1.0000   1.0000   1.0000
     1.0000   1.0000   1.0000   1.0000   1.0000   1.0000   1.0000   1.0000
     1.0000   1.0000   1.0000   1.0000   1.0000   1.0000   1.0000   1.0000
     1.0000   1.0000   1.0000   1.0000   1.0000   1.0000   1.0000   1.0000
     1.0000   1.0000   1.0000   1.0000   1.0000   1.0000   1.0000   1.0000
     1.0000   1.0000   1.0000   1.0000   1.0000   1.0000   1.0000   1.0000
     1.0000   1.0000   1.0000   1.0000   1.0000   1.0000   1.0000   1.0000
     1.0000   1.0000   1.0000   1.0000   1.0000   1.0000   1.0000   1.0000
     1.0000   1.0000   1.0000   1.0000   1.0000   1.0000   1.0000   1.0000
     1.0000   1.0000   1.0000   1.0000   1.0000   1.0000   1.0000   1.0000
     1.0000   1.0000   1.0000   1.0000   1.0000   1.0000   1.0000   1.0000
     1.0000   1.0000   1.0000   1.0000   1.0000   1.0000   1.0000   1.0000
     1.0000   1.0000   1.0000   1.0000   1.0000   1.0000   1.0000   1.0000
     1.0000   1.0000   1.0000   1.0000   1.0000   1.0000   1.0000   1.0000
     1.0000   1.0000   1.0000   1.0000   1.0000   0.9923   0.9923   0.9923
     0.9923   0.0000   0.0000   0.0000   0.0000   0.0000   0.0000   0.0000
     0.0000   0.0000   0.0000   0.0000   0.0000   0.0000   0.0000   0.0000
     0.0000   0.0000   0.0000   0.0000   0.0000   0.0000   0.0000   0.0000
     0.0000   0.0000   0.0000   0.0000   0.0000   0.0000   0.0000   0.0000
     0.0000   0.0000   0.0000   0.0000   0.0000   0.0000   0.0000   0.0000
     0.0000   0.0000   0.0000   0.0000   0.0000   0.0000   0.0000   0.0000
     0.0000   0.0000   0.0000   0.0000

          k = 0.2500 0.4330 0.0000 ( 21707 PWs)   bands (ev):

   -87.6500 -87.6481 -87.6480 -87.6442 -87.6441 -87.6429 -87.6428 -87.6427
   -87.6423 -87.4259 -87.4259 -87.4241 -87.4240 -87.4240 -87.4239 -87.4203
   -87.4202 -87.4202 -87.4201 -87.4190 -87.4189 -87.4189 -87.4189 -87.4188
   -87.4187 -87.4184 -87.4183 -51.1628 -51.1627 -51.1586 -51.1475 -51.1411
   -51.1411 -51.1242 -51.1207 -51.1206 -51.1131 -51.1130 -51.1112 -51.1112
   -51.1110 -51.1105 -51.1094 -51.1071 -51.1053 -51.1053 -51.0960 -51.0959
   -51.0947 -51.0947 -51.0843 -51.0773 -51.0772 -51.0712 -50.9393 -50.9393
   -50.9360 -50.9359 -50.9353 -50.9321 -50.9241 -50.9220 -50.9181 -50.9181
   -50.9158 -50.9157 -50.8873 -50.8861 -50.8845 -50.8844 -50.8839 -50.8829
   -50.8829 -50.8826 -50.8826 -50.8811 -50.8810 -50.8776 -50.8761 -50.8760
   -50.8751 -50.8750 -50.8748 -50.8748 -50.8746 -50.8746 -50.8744 -50.8737
   -50.8737 -50.8737 -50.8735 -50.8730 -50.8729 -50.8726 -50.8726 -50.8726
   -50.8726 -50.8724 -50.8720 -50.8720 -50.8623 -50.8620 -50.8559 -50.8559
   -50.8553 -50.8553 -50.8497 -50.8496  -2.0639  -1.5426  -1.5425  -1.5190
    -1.5189  -1.4008  -1.4007  -1.3276  -1.3022  -1.2833  -1.2832  -1.2536
    -1.1318  -1.1194  -1.1057  -1.1056  -1.0985  -1.0970  -1.0969  -1.0882
    -1.0881  -1.0437  -1.0437  -1.0374  -1.0373  -1.0149  -0.9076  -0.7963
    -0.7962  -0.7905  -0.7022  -0.7022  -0.6496  -0.6176  -0.6175  -0.5711
    -0.5304  -0.5304  -0.5219  -0.5218  -0.4866  -0.4773  -0.4772  -0.4046
    -0.3736  -0.3693  -0.3482  -0.3482  -0.3388  -0.3387  -0.3292  -0.2564
    -0.2564  -0.2453  -0.1992  -0.1132  -0.1132  -0.1012  -0.1012  -0.0749
    -0.0749  -0.0711  -0.0462  -0.0462  -0.0303  -0.0147   0.0050   0.0050
     0.0057   0.0590   0.0726   0.1164   0.1164   0.2295   0.2295   0.2348
     0.2836   0.2914   0.2914   0.3044   0.3071   0.3581   0.3582   0.3773
     0.3773   0.4044   0.4045   0.4548   0.5395   0.5524   0.5786   0.5928
     0.5928   0.6231   0.6232   0.6263   0.6264   0.6528   0.6528   0.6612
     0.6823   0.6823   0.6921   0.7789   0.7989   0.7989   0.8224   0.8225
     0.8451   0.8664   0.8945   0.8945   0.9520   0.9653   0.9653   1.0094
     1.0978   1.0978   1.1571   1.1763   1.1814   1.1814   1.2024   1.2024
     1.2152   1.2228   1.2228   1.2438   1.2438   1.2526   1.3225   1.3225
     1.3477   1.3647   1.3803   1.3804   1.4064   1.4530   1.4530   1.7782
     1.7782   2.5595   2.5596   3.5196   3.7706   3.7706   4.0431   4.1845
     4.1846   4.3246   4.3247   5.3397   5.4308   5.4308   5.6428   5.6971
     6.1220   6.1220   6.2521   6.5647   6.5647   6.6500   6.6500   6.8578
     7.5240   8.3109   8.3775   8.3775   8.4028   8.9111   8.9111   8.9117
     8.9117   9.0130   9.0130   9.4168   9.4750   9.9801  10.1519  10.1519
    10.1637  10.2057  10.2323  10.2324  10.3172  10.5222  10.5222  10.5830
    10.7224  10.7225  11.2466  11.2466  11.7707  11.8321  11.8322  12.1499
    12.1523  12.1523  12.1984  12.1985

     occupation numbers 
     1.0000   1.0000   1.0000   1.0000   1.0000   1.0000   1.0000   1.0000
     1.0000   1.0000   1.0000   1.0000   1.0000   1.0000   1.0000   1.0000
     1.0000   1.0000   1.0000   1.0000   1.0000   1.0000   1.0000   1.0000
     1.0000   1.0000   1.0000   1.0000   1.0000   1.0000   1.0000   1.0000
     1.0000   1.0000   1.0000   1.0000   1.0000   1.0000   1.0000   1.0000
     1.0000   1.0000   1.0000   1.0000   1.0000   1.0000   1.0000   1.0000
     1.0000   1.0000   1.0000   1.0000   1.0000   1.0000   1.0000   1.0000
     1.0000   1.0000   1.0000   1.0000   1.0000   1.0000   1.0000   1.0000
     1.0000   1.0000   1.0000   1.0000   1.0000   1.0000   1.0000   1.0000
     1.0000   1.0000   1.0000   1.0000   1.0000   1.0000   1.0000   1.0000
     1.0000   1.0000   1.0000   1.0000   1.0000   1.0000   1.0000   1.0000
     1.0000   1.0000   1.0000   1.0000   1.0000   1.0000   1.0000   1.0000
     1.0000   1.0000   1.0000   1.0000   1.0000   1.0000   1.0000   1.0000
     1.0000   1.0000   1.0000   1.0000   1.0000   1.0000   1.0000   1.0000
     1.0000   1.0000   1.0000   1.0000   1.0000   1.0000   1.0000   1.0000
     1.0000   1.0000   1.0000   1.0000   1.0000   1.0000   1.0000   1.0000
     1.0000   1.0000   1.0000   1.0000   1.0000   1.0000   1.0000   1.0000
     1.0000   1.0000   1.0000   1.0000   1.0000   1.0000   1.0000   1.0000
     1.0000   1.0000   1.0000   1.0000   1.0000   1.0000   1.0000   1.0000
     1.0000   1.0000   1.0000   1.0000   1.0000   1.0000   1.0000   1.0000
     1.0000   1.0000   1.0000   1.0000   1.0000   1.0000   1.0000   1.0000
     1.0000   1.0000   1.0000   1.0000   1.0000   1.0000   1.0000   1.0000
     1.0000   1.0000   1.0000   1.0000   1.0000   1.0000   1.0000   1.0000
     1.0000   1.0000   1.0000   1.0000   1.0000   1.0000   1.0000   1.0000
     1.0000   1.0000   1.0000   1.0000   1.0000   1.0000   1.0000   1.0000
     1.0000   1.0000   1.0000   1.0000   1.0000   1.0000   1.0000   1.0000
     1.0000   1.0000   1.0000   1.0000   1.0000   1.0000   1.0000   1.0000
     1.0000   1.0000   1.0000   1.0000   1.0000   1.0000   1.0000   1.0000
     1.0000   1.0000   1.0000   1.0000   1.0000   1.0000   1.0000   1.0000
     1.0000   1.0000   1.0000   1.0000   1.0000   1.0000   1.0000   1.0000
     1.0000   1.0000   1.0000   1.0000   1.0000   1.0000   1.0000   1.0000
     1.0000   1.0000   1.0000   1.0000   1.0000   1.0000   1.0000   0.2581
     0.2573   0.0000   0.0000   0.0000   0.0000   0.0000   0.0000   0.0000
     0.0000   0.0000   0.0000   0.0000   0.0000   0.0000   0.0000   0.0000
     0.0000   0.0000   0.0000   0.0000   0.0000   0.0000   0.0000   0.0000
     0.0000   0.0000   0.0000   0.0000   0.0000   0.0000   0.0000   0.0000
     0.0000   0.0000   0.0000   0.0000   0.0000   0.0000   0.0000   0.0000
     0.0000   0.0000   0.0000   0.0000   0.0000   0.0000   0.0000   0.0000
     0.0000   0.0000   0.0000   0.0000

     the Fermi energy is     4.1657 ev

!    total energy              =   -7981.11469003 Ry
     estimated scf accuracy    <       0.00000007 Ry
     smearing contrib. (-TS)   =      -0.00109485 Ry
     internal energy E=F+TS    =   -7981.11359518 Ry

     The total energy is F=E-TS. E is the sum of the following terms:
     one-electron contribution =  -30231.57740280 Ry
     hartree contribution      =   15136.41697007 Ry
     xc contribution           =    -781.47564948 Ry
     ewald contribution        =    7895.52248703 Ry

     convergence has been achieved in  12 iterations

     negative rho (up, down):  5.546E-03 0.000E+00

     Forces acting on atoms (cartesian axes, Ry/au):

     atom    1 type  1   force =     0.00000000    0.00001639   -0.00480166
     atom    2 type  1   force =    -0.00000000   -0.00000000    0.00478645
     atom    3 type  1   force =     0.00001060    0.00000612    0.00001268
     atom    4 type  1   force =     0.00000510    0.00000294   -0.00481400
     atom    5 type  1   force =    -0.00001160    0.00000655    0.00479504
     atom    6 type  1   force =     0.00000000    0.00000558    0.00001755
     atom    7 type  1   force =     0.00001419   -0.00000819   -0.00480166
     atom    8 type  1   force =    -0.00000013   -0.00001332    0.00479504
     atom    9 type  1   force =     0.00000483   -0.00000279    0.00001755
     atom   10 type  1   force =     0.00000521    0.00000301   -0.00481242
     atom   11 type  1   force =     0.00001147    0.00000677    0.00479504
     atom   12 type  1   force =     0.00000000   -0.00000039    0.00001028
     atom   13 type  1   force =    -0.00000510    0.00000294   -0.00481400
     atom   14 type  1   force =     0.00001160    0.00000655    0.00479504
     atom   15 type  1   force =    -0.00000033    0.00000019    0.00001028
     atom   16 type  1   force =     0.00000000   -0.00000589   -0.00481400
     atom   17 type  1   force =     0.00000000    0.00000000    0.00480328
     atom   18 type  1   force =    -0.00000483   -0.00000279    0.00001755
     atom   19 type  1   force =    -0.00000521    0.00000301   -0.00481242
     atom   20 type  1   force =    -0.00001147    0.00000677    0.00479504
     atom   21 type  1   force =    -0.00001060    0.00000612    0.00001268
     atom   22 type  1   force =     0.00000000   -0.00000602   -0.00481242
     atom   23 type  1   force =     0.00000000   -0.00000000    0.00480274
     atom   24 type  1   force =     0.00000033    0.00000019    0.00001028
     atom   25 type  1   force =    -0.00001419   -0.00000819   -0.00480166
     atom   26 type  1   force =     0.00000013   -0.00001332    0.00479504
     atom   27 type  1   force =     0.00000000   -0.00001224    0.00001268
     The non-local contrib.  to forces
     atom    1 type  1   force =     0.00000000    0.00000935    0.15906892
     atom    2 type  1   force =     0.00000000    0.00000000   -0.15905935
     atom    3 type  1   force =     0.00001238    0.00000715    0.00001132
     atom    4 type  1   force =    -0.00000145   -0.00000084    0.15908367
     atom    5 type  1   force =    -0.00000785    0.00001003   -0.15907756
     atom    6 type  1   force =     0.00000000    0.00001102    0.00000827
     atom    7 type  1   force =     0.00000809   -0.00000467    0.15906892
     atom    8 type  1   force =     0.00000476   -0.00001181   -0.15907756
     atom    9 type  1   force =     0.00000955   -0.00000551    0.00000827
     atom   10 type  1   force =     0.00000998    0.00000576    0.15908356
     atom   11 type  1   force =     0.00001261    0.00000179   -0.15907756
     atom   12 type  1   force =     0.00000000    0.00000416    0.00000985
     atom   13 type  1   force =     0.00000145   -0.00000084    0.15908367
     atom   14 type  1   force =     0.00000785    0.00001003   -0.15907756
     atom   15 type  1   force =     0.00000361   -0.00000208    0.00000985
     atom   16 type  1   force =     0.00000000    0.00000167    0.15908367
     atom   17 type  1   force =     0.00000000    0.00000000   -0.15908916
     atom   18 type  1   force =    -0.00000955   -0.00000551    0.00000827
     atom   19 type  1   force =    -0.00000998    0.00000576    0.15908356
     atom   20 type  1   force =    -0.00001261    0.00000179   -0.15907756
     atom   21 type  1   force =    -0.00001238    0.00000715    0.00001132
     atom   22 type  1   force =     0.00000000   -0.00001152    0.15908356
     atom   23 type  1   force =     0.00000000    0.00000000   -0.15908473
     atom   24 type  1   force =    -0.00000361   -0.00000208    0.00000985
     atom   25 type  1   force =    -0.00000809   -0.00000467    0.15906892
     atom   26 type  1   force =    -0.00000476   -0.00001181   -0.15907756
     atom   27 type  1   force =     0.00000000   -0.00001429    0.00001132
     The ionic contribution  to forces
     atom    1 type  1   force =    -0.00009247   -0.00017792  195.66522649
     atom    2 type  1   force =    -0.00007326   -0.00014600 -195.66529589
     atom    3 type  1   force =    -0.00011867   -0.00019101    0.00016703
     atom    4 type  1   force =    -0.00009798   -0.00004292  195.66523383
     atom    5 type  1   force =    -0.00007661   -0.00004939 -195.66534837
     atom    6 type  1   force =    -0.00012188   -0.00005579    0.00012806
     atom    7 type  1   force =    -0.00010132    0.00005369  195.66518135
     atom    8 type  1   force =    -0.00008212    0.00008561 -195.66534103
     atom    9 type  1   force =    -0.00012508    0.00007942    0.00008910
     atom   10 type  1   force =     0.00000191   -0.00012726  195.66527674
     atom   11 type  1   force =    -0.00001517   -0.00012546 -195.66534103
     atom   12 type  1   force =     0.00002532   -0.00011411    0.00014840
     atom   13 type  1   force =    -0.00000360    0.00000774  195.66528408
     atom   14 type  1   force =    -0.00001851   -0.00002884 -195.66539352
     atom   15 type  1   force =     0.00002211    0.00002111    0.00010944
     atom   16 type  1   force =    -0.00000695    0.00010435  195.66523159
     atom   17 type  1   force =    -0.00002403    0.00010616 -195.66538618
     atom   18 type  1   force =     0.00001891    0.00015632    0.00007047
     atom   19 type  1   force =     0.00011594   -0.00006778  195.66526125
     atom   20 type  1   force =     0.00010450   -0.00006273 -195.66534837
     atom   21 type  1   force =     0.00008809   -0.00008822    0.00015772
     atom   22 type  1   force =     0.00011042    0.00006722  195.66526859
     atom   23 type  1   force =     0.00010115    0.00003388 -195.66540086
     atom   24 type  1   force =     0.00008488    0.00004700    0.00011875
     atom   25 type  1   force =     0.00010708    0.00016384  195.66521610
     atom   26 type  1   force =     0.00009564    0.00016888 -195.66539352
     atom   27 type  1   force =     0.00008168    0.00018221    0.00007978
     The local contribution  to forces
     atom    1 type  1   force =     0.00056552    0.00069253 -195.82805120
     atom    2 type  1   force =    -0.00000000   -0.00000000  195.82811789
     atom    3 type  1   force =     0.00033444    0.00084320   -0.00021927
     atom    4 type  1   force =     0.00060232    0.00058260 -195.82810835
     atom    5 type  1   force =    -0.00040776    0.00072532  195.82820122
     atom    6 type  1   force =    -0.00056302    0.00129731   -0.00019830
     atom    7 type  1   force =     0.00067913    0.00049578 -195.82805120
     atom    8 type  1   force =    -0.00034464    0.00061599  195.82820122
     atom    9 type  1   force =    -0.00048651    0.00116480   -0.00019830
     atom   10 type  1   force =     0.00141743    0.00016535 -195.82812978
     atom   11 type  1   force =     0.00083202   -0.00000952  195.82820122
     atom   12 type  1   force =     0.00020247    0.00083974   -0.00019782
     atom   13 type  1   force =     0.00052873    0.00058260 -195.82810835
     atom   14 type  1   force =     0.00040776    0.00072532  195.82820122
     atom   15 type  1   force =     0.00026546    0.00073065   -0.00019782
     atom   16 type  1   force =     0.00056552    0.00051888 -195.82810835
     atom   17 type  1   force =     0.00000000    0.00088786  195.82823593
     atom   18 type  1   force =    -0.00063952    0.00116480   -0.00019830
     atom   19 type  1   force =     0.00125142    0.00016535 -195.82812978
     atom   20 type  1   force =     0.00070577   -0.00000952  195.82820122
     atom   21 type  1   force =     0.00007051    0.00084320   -0.00021927
     atom   22 type  1   force =     0.00133442    0.00002159 -195.82812978
     atom   23 type  1   force =     0.00076890    0.00044393  195.82825563
     atom   24 type  1   force =     0.00013949    0.00073065   -0.00019782
     atom   25 type  1   force =     0.00045192    0.00049578 -195.82805120
     atom   26 type  1   force =     0.00034464    0.00061599  195.82820122
     atom   27 type  1   force =     0.00020247    0.00061464   -0.00021927
     The core correction contribution to forces
     atom    1 type  1   force =     0.00000037    0.00000035   -0.00114458
     atom    2 type  1   force =    -0.00000000   -0.00000000    0.00114765
     atom    3 type  1   force =     0.00000011    0.00000050    0.00000299
     atom    4 type  1   force =     0.00000040    0.00000038   -0.00114461
     atom    5 type  1   force =    -0.00000023    0.00000039    0.00114769
     atom    6 type  1   force =    -0.00000037    0.00000077    0.00000302
     atom    7 type  1   force =     0.00000035    0.00000038   -0.00114458
     atom    8 type  1   force =    -0.00000028    0.00000048    0.00114769
     atom    9 type  1   force =    -0.00000040    0.00000082    0.00000302
     atom   10 type  1   force =     0.00000083    0.00000005   -0.00114462
     atom   11 type  1   force =     0.00000046    0.00000001    0.00114769
     atom   12 type  1   force =     0.00000013    0.00000050    0.00000299
     atom   13 type  1   force =     0.00000035    0.00000038   -0.00114461
     atom   14 type  1   force =     0.00000023    0.00000039    0.00114769
     atom   15 type  1   force =     0.00000012    0.00000052    0.00000299
     atom   16 type  1   force =     0.00000037    0.00000034   -0.00114461
     atom   17 type  1   force =     0.00000000    0.00000058    0.00114773
     atom   18 type  1   force =    -0.00000035    0.00000082    0.00000302
     atom   19 type  1   force =     0.00000092    0.00000005   -0.00114462
     atom   20 type  1   force =     0.00000055    0.00000001    0.00114769
     atom   21 type  1   force =     0.00000016    0.00000050    0.00000299
     atom   22 type  1   force =     0.00000088    0.00000013   -0.00114462
     atom   23 type  1   force =     0.00000051    0.00000029    0.00114770
     atom   24 type  1   force =     0.00000015    0.00000052    0.00000299
     atom   25 type  1   force =     0.00000039    0.00000038   -0.00114458
     atom   26 type  1   force =     0.00000028    0.00000048    0.00114769
     atom   27 type  1   force =     0.00000013    0.00000054    0.00000299
     The Hubbard contrib.    to forces
     atom    1 type  1   force =     0.00000000    0.00000000    0.00000000
     atom    2 type  1   force =     0.00000000    0.00000000    0.00000000
     atom    3 type  1   force =     0.00000000    0.00000000    0.00000000
     atom    4 type  1   force =     0.00000000    0.00000000    0.00000000
     atom    5 type  1   force =     0.00000000    0.00000000    0.00000000
     atom    6 type  1   force =     0.00000000    0.00000000    0.00000000
     atom    7 type  1   force =     0.00000000    0.00000000    0.00000000
     atom    8 type  1   force =     0.00000000    0.00000000    0.00000000
     atom    9 type  1   force =     0.00000000    0.00000000    0.00000000
     atom   10 type  1   force =     0.00000000    0.00000000    0.00000000
     atom   11 type  1   force =     0.00000000    0.00000000    0.00000000
     atom   12 type  1   force =     0.00000000    0.00000000    0.00000000
     atom   13 type  1   force =     0.00000000    0.00000000    0.00000000
     atom   14 type  1   force =     0.00000000    0.00000000    0.00000000
     atom   15 type  1   force =     0.00000000    0.00000000    0.00000000
     atom   16 type  1   force =     0.00000000    0.00000000    0.00000000
     atom   17 type  1   force =     0.00000000    0.00000000    0.00000000
     atom   18 type  1   force =     0.00000000    0.00000000    0.00000000
     atom   19 type  1   force =     0.00000000    0.00000000    0.00000000
     atom   20 type  1   force =     0.00000000    0.00000000    0.00000000
     atom   21 type  1   force =     0.00000000    0.00000000    0.00000000
     atom   22 type  1   force =     0.00000000    0.00000000    0.00000000
     atom   23 type  1   force =     0.00000000    0.00000000    0.00000000
     atom   24 type  1   force =     0.00000000    0.00000000    0.00000000
     atom   25 type  1   force =     0.00000000    0.00000000    0.00000000
     atom   26 type  1   force =     0.00000000    0.00000000    0.00000000
     atom   27 type  1   force =     0.00000000    0.00000000    0.00000000
     The SCF correction term to forces
     atom    1 type  1   force =     0.00000002    0.00003164    0.00011606
     atom    2 type  1   force =    -0.00000000   -0.00000001   -0.00012501
     atom    3 type  1   force =     0.00001088    0.00000630    0.00008164
     atom    4 type  1   force =     0.00002855    0.00001649    0.00010429
     atom    5 type  1   force =    -0.00002985   -0.00000133   -0.00011650
     atom    6 type  1   force =    -0.00000003    0.00000575    0.00010754
     atom    7 type  1   force =     0.00002741   -0.00001579    0.00011606
     atom    8 type  1   force =    -0.00001611   -0.00002512   -0.00011650
     atom    9 type  1   force =     0.00000491   -0.00000280    0.00010753
     atom   10 type  1   force =    -0.00001160   -0.00000673    0.00010840
     atom   11 type  1   force =     0.00001377    0.00002650   -0.00011650
     atom   12 type  1   force =     0.00000001   -0.00000973    0.00006858
     atom   13 type  1   force =    -0.00002851    0.00001650    0.00010429
     atom   14 type  1   force =     0.00002984   -0.00000133   -0.00011650
     atom   15 type  1   force =    -0.00000844    0.00000491    0.00006857
     atom   16 type  1   force =     0.00000002   -0.00003291    0.00010428
     atom   17 type  1   force =    -0.00000000    0.00000004   -0.00010619
     atom   18 type  1   force =    -0.00000496   -0.00000280    0.00010753
     atom   19 type  1   force =     0.00001172   -0.00000673    0.00010840
     atom   20 type  1   force =    -0.00001370    0.00002651   -0.00011650
     atom   21 type  1   force =    -0.00001087    0.00000631    0.00008164
     atom   22 type  1   force =     0.00000006    0.00001347    0.00010840
     atom   23 type  1   force =     0.00000004    0.00000002   -0.00011616
     atom   24 type  1   force =     0.00000846    0.00000491    0.00006857
     atom   25 type  1   force =    -0.00002736   -0.00001578    0.00011606
     atom   26 type  1   force =     0.00001611   -0.00002511   -0.00011650
     atom   27 type  1   force =     0.00000001   -0.00001253    0.00008164

     Total force =     0.020376     Total SCF correction =     0.000558


     Computing stress (Cartesian axis) and pressure


     negative rho (up, down):  5.546E-03 0.000E+00
          total   stress  (Ry/bohr**3)                   (kbar)     P=      -50.66
  -0.00035287  -0.00000000   0.00000000          -51.91       -0.00        0.00
   0.00000000  -0.00035287   0.00000000            0.00      -51.91        0.00
   0.00000000  -0.00000000  -0.00032750            0.00       -0.00      -48.18

     kinetic stress (kbar)  22647.45      0.00      0.00
                                0.00  22647.45      0.00
                                0.00      0.00  22712.35

     local   stress (kbar)-498335.88     -0.00     -0.00
                               -0.00-498335.88      0.00
                               -0.00      0.00 501927.28

     nonloc. stress (kbar)   2660.43      0.00      0.00
                                0.00   2660.43      0.00
                                0.00      0.00   2635.50

     hartree stress (kbar) 258772.00     -0.00     -0.00
                               -0.00 258772.00     -0.00
                               -0.00     -0.00-233279.60

     exc-cor stress (kbar)  -4083.24     -0.00     -0.00
                               -0.00  -4083.24      0.00
                               -0.00      0.00  -4090.13

     corecor stress (kbar)   -552.73     -0.00      0.00
                               -0.00   -552.73     -0.00
                                0.00     -0.00   -552.64

     ewald   stress (kbar) 218840.07      0.00      0.00
                                0.00 218840.07     -0.00
                                0.00     -0.00-289400.94

     hubbard stress (kbar)      0.00      0.00      0.00
                                0.00      0.00      0.00
                                0.00      0.00      0.00

     DFT-D   stress (kbar)      0.00      0.00      0.00
                                0.00      0.00      0.00
                                0.00      0.00      0.00

     XDM     stress (kbar)      0.00      0.00      0.00
                                0.00      0.00      0.00
                                0.00      0.00      0.00

     dft-nl  stress (kbar)      0.00      0.00      0.00
                                0.00      0.00      0.00
                                0.00      0.00      0.00

     TS-vdW  stress (kbar)      0.00      0.00      0.00
                                0.00      0.00      0.00
                                0.00      0.00      0.00



     BFGS Geometry Optimization
     Energy error            =      0.0E+00
     Gradient error          =      4.8E-03

     number of scf cycles    =   1
     number of bfgs steps    =   0

     energy   new            =   -7981.1146900332 Ry

     new trust radius        =       0.0048140079 bohr
     new conv_thr            =       0.0000010000 Ry


ATOMIC_POSITIONS (angstrom)
Ag           -0.0000014710        1.6985463008        4.8016488069
Ag           -0.0000000000       -0.0000000000        0.0025328821
Ag            1.4709830791        0.8492707782        2.4020979725
Ag           -1.4709747719        4.2463443554        4.8016422740
Ag           -1.4709821375        2.5478086356        0.0025374267
Ag            0.0000014710        3.3970756629        2.4021005533
Ag           -2.9419459605        6.7941436296        4.8016488069
Ag           -2.9419520663        5.0956032887        0.0025374267
Ag           -1.4709719709        5.9448764008        2.4021005533
Ag            2.9419532877        1.6985392211        4.8016431134
Ag            2.9419580712        0.0000035818        0.0025374267
Ag            4.4129294710        0.8492673358        2.4020967035
Ag            1.4709718299        4.2463443554        4.8016422740
Ag            1.4709821375        2.5478086356        0.0025374267
Ag            2.9419532939        3.3970728112        2.4020967035
Ag           -0.0000014710        6.7941448491        4.8016422740
Ag            0.0000000000        5.0956103374        0.0025417872
Ag            1.4709749129        5.9448764008        2.4021005533
Ag            5.8838997703        1.6985392211        4.8016431134
Ag            5.8838979288        0.0000035818        0.0025374267
Ag            7.3548758629        0.8492707782        2.4020979725
Ag            4.4129265290        4.2463396116        4.8016431134
Ag            4.4129280000        2.5478051687        0.0025414995
Ag            5.8839056481        3.3970728112        2.4020967035
Ag            2.9419430185        6.7941436296        4.8016488069
Ag            2.9419520663        5.0956032887        0.0025374267
Ag            4.4129294710        5.9448714020        2.4020979725



     Writing output data file ./surface.save/
     NEW-OLD atomic charge density approx. for the potential

     negative rho (up, down):  5.588E-03 0.000E+00

     total cpu time spent up to now is       50.5 secs

     Self-consistent Calculation

     iteration #  1     ecut=    30.00 Ry     beta= 0.30
     Davidson diagonalization with overlap
     ethr =  1.00E-06,  avg # of iterations =  4.0

     Threshold (ethr) on eigenvalues was too large:
     Diagonalizing with lowered threshold

     Davidson diagonalization with overlap
     ethr =  3.42E-08,  avg # of iterations =  2.0

     negative rho (up, down):  5.592E-03 0.000E+00

     total cpu time spent up to now is       58.8 secs

     total energy              =   -7981.11504041 Ry
     estimated scf accuracy    <       0.00017872 Ry

     iteration #  2     ecut=    30.00 Ry     beta= 0.30
     Davidson diagonalization with overlap
     ethr =  3.48E-08,  avg # of iterations =  6.0

     negative rho (up, down):  5.589E-03 0.000E+00

     total cpu time spent up to now is       62.9 secs

     total energy              =   -7981.11507793 Ry
     estimated scf accuracy    <       0.00013347 Ry

     iteration #  3     ecut=    30.00 Ry     beta= 0.30
     Davidson diagonalization with overlap
     ethr =  2.60E-08,  avg # of iterations =  2.0

     negative rho (up, down):  5.588E-03 0.000E+00

     total cpu time spent up to now is       66.1 secs

     total energy              =   -7981.11509444 Ry
     estimated scf accuracy    <       0.00000496 Ry

     iteration #  4     ecut=    30.00 Ry     beta= 0.30
     Davidson diagonalization with overlap
     ethr =  9.66E-10,  avg # of iterations =  2.0

     negative rho (up, down):  5.588E-03 0.000E+00

     total cpu time spent up to now is       69.2 secs

     total energy              =   -7981.11509442 Ry
     estimated scf accuracy    <       0.00000954 Ry

     iteration #  5     ecut=    30.00 Ry     beta= 0.30
     Davidson diagonalization with overlap
     ethr =  9.66E-10,  avg # of iterations =  1.0

     negative rho (up, down):  5.585E-03 0.000E+00

     total cpu time spent up to now is       71.9 secs

     End of self-consistent calculation

          k = 0.0000 0.0000 0.0000 ( 21795 PWs)   bands (ev):

   -87.6532 -87.6466 -87.6466 -87.6466 -87.6465 -87.6465 -87.6464 -87.6432
   -87.6432 -87.4290 -87.4289 -87.4226 -87.4225 -87.4225 -87.4224 -87.4224
   -87.4224 -87.4224 -87.4223 -87.4223 -87.4223 -87.4223 -87.4222 -87.4192
   -87.4192 -87.4190 -87.4190 -51.1429 -51.1428 -51.1428 -51.1428 -51.1427
   -51.1427 -51.1381 -51.1381 -51.1381 -51.1381 -51.1293 -51.1171 -51.1170
   -51.1170 -51.1169 -51.1169 -51.1169 -51.1111 -51.1111 -51.0865 -51.0865
   -51.0864 -51.0864 -51.0864 -51.0863 -51.0678 -51.0678 -50.9196 -50.9196
   -50.9196 -50.9196 -50.9196 -50.9195 -50.9170 -50.9170 -50.9170 -50.9169
   -50.9169 -50.9169 -50.9153 -50.9153 -50.9147 -50.9147 -50.9146 -50.9146
   -50.9116 -50.9116 -50.8877 -50.8798 -50.8785 -50.8784 -50.8784 -50.8784
   -50.8784 -50.8784 -50.8761 -50.8761 -50.8760 -50.8760 -50.8760 -50.8760
   -50.8745 -50.8744 -50.8743 -50.8743 -50.8649 -50.8648 -50.8648 -50.8648
   -50.8648 -50.8648 -50.8643 -50.8643 -50.8643 -50.8643 -50.8642 -50.8642
   -50.8464 -50.8464 -50.8462 -50.8462  -2.5829  -1.6484  -1.5258  -1.4581
    -1.4581  -1.4581  -1.4581  -1.4581  -1.4580  -1.2760  -1.2759  -1.2759
    -1.2759  -1.2759  -1.2759  -1.1650  -1.1650  -1.1650  -1.1649  -1.1649
    -1.1649  -0.9591  -0.9591  -0.9591  -0.9591  -0.9474  -0.9474  -0.9474
    -0.9474  -0.9473  -0.9473  -0.9103  -0.9103  -0.5648  -0.5648  -0.5648
    -0.5648  -0.3803  -0.3803  -0.3803  -0.3803  -0.3803  -0.3803  -0.3292
    -0.3054  -0.3054  -0.2533  -0.2533  -0.2533  -0.2533  -0.2533  -0.2532
    -0.1108  -0.1108  -0.1062  -0.1062   0.0151   0.0151   0.0152   0.0152
     0.0152   0.0152   0.0157   0.0157   0.1012   0.1012   0.1079   0.1079
     0.1149   0.1149   0.1150   0.1150   0.1502   0.1502   0.1502   0.1502
     0.1503   0.1503   0.3383   0.6008   0.6008   0.6008   0.6008   0.6268
     0.6268   0.6268   0.6268   0.6269   0.6269   0.6281   0.6281   0.6725
     0.6726   0.6726   0.6726   0.6726   0.6727   0.8324   0.8324   0.8324
     0.8325   0.8325   0.8325   0.9259   0.9259   0.9400   0.9400   0.9400
     0.9400   0.9400   0.9400   1.0889   1.0889   1.0890   1.0890   1.0898
     1.0898   1.0898   1.0898   1.0899   1.0899   1.1357   1.1357   1.1357
     1.1358   1.1358   1.1358   1.1974   1.1974   1.2328   1.2328   1.2949
     1.2949   1.2949   1.2949   1.2949   1.2949   1.5204   1.5204   1.5204
     1.5205   1.5205   1.5205   2.9180   2.9592   2.9593   2.9593   2.9594
     2.9594   2.9594   4.7014   5.5127   5.5127   5.5127   5.5128   5.5128
     5.5128   7.7582   7.7582   7.7583   7.7583   7.8618   7.8635   7.8635
     8.4210   8.4211   8.4211   8.4211   8.4211   8.4212   8.7808   8.7808
     8.9636   9.5580   9.5580   9.5580   9.5580   9.5921  10.2412  10.2412
    10.2412  10.2412  10.2412  10.2412  10.8883  10.8883  10.8883  10.8883
    10.8883  10.8883  11.0050  11.0050  11.0051  11.0051  11.6641  11.6642
    11.6642  11.6642  11.6642  11.6642

     occupation numbers 
     1.0000   1.0000   1.0000   1.0000   1.0000   1.0000   1.0000   1.0000
     1.0000   1.0000   1.0000   1.0000   1.0000   1.0000   1.0000   1.0000
     1.0000   1.0000   1.0000   1.0000   1.0000   1.0000   1.0000   1.0000
     1.0000   1.0000   1.0000   1.0000   1.0000   1.0000   1.0000   1.0000
     1.0000   1.0000   1.0000   1.0000   1.0000   1.0000   1.0000   1.0000
     1.0000   1.0000   1.0000   1.0000   1.0000   1.0000   1.0000   1.0000
     1.0000   1.0000   1.0000   1.0000   1.0000   1.0000   1.0000   1.0000
     1.0000   1.0000   1.0000   1.0000   1.0000   1.0000   1.0000   1.0000
     1.0000   1.0000   1.0000   1.0000   1.0000   1.0000   1.0000   1.0000
     1.0000   1.0000   1.0000   1.0000   1.0000   1.0000   1.0000   1.0000
     1.0000   1.0000   1.0000   1.0000   1.0000   1.0000   1.0000   1.0000
     1.0000   1.0000   1.0000   1.0000   1.0000   1.0000   1.0000   1.0000
     1.0000   1.0000   1.0000   1.0000   1.0000   1.0000   1.0000   1.0000
     1.0000   1.0000   1.0000   1.0000   1.0000   1.0000   1.0000   1.0000
     1.0000   1.0000   1.0000   1.0000   1.0000   1.0000   1.0000   1.0000
     1.0000   1.0000   1.0000   1.0000   1.0000   1.0000   1.0000   1.0000
     1.0000   1.0000   1.0000   1.0000   1.0000   1.0000   1.0000   1.0000
     1.0000   1.0000   1.0000   1.0000   1.0000   1.0000   1.0000   1.0000
     1.0000   1.0000   1.0000   1.0000   1.0000   1.0000   1.0000   1.0000
     1.0000   1.0000   1.0000   1.0000   1.0000   1.0000   1.0000   1.0000
     1.0000   1.0000   1.0000   1.0000   1.0000   1.0000   1.0000   1.0000
     1.0000   1.0000   1.0000   1.0000   1.0000   1.0000   1.0000   1.0000
     1.0000   1.0000   1.0000   1.0000   1.0000   1.0000   1.0000   1.0000
     1.0000   1.0000   1.0000   1.0000   1.0000   1.0000   1.0000   1.0000
     1.0000   1.0000   1.0000   1.0000   1.0000   1.0000   1.0000   1.0000
     1.0000   1.0000   1.0000   1.0000   1.0000   1.0000   1.0000   1.0000
     1.0000   1.0000   1.0000   1.0000   1.0000   1.0000   1.0000   1.0000
     1.0000   1.0000   1.0000   1.0000   1.0000   1.0000   1.0000   1.0000
     1.0000   1.0000   1.0000   1.0000   1.0000   1.0000   1.0000   1.0000
     1.0000   1.0000   1.0000   1.0000   1.0000   1.0000   1.0000   1.0000
     1.0000   1.0000   1.0000   1.0000   1.0000   1.0000   1.0000   1.0000
     1.0000   1.0000   1.0000   1.0000   1.0000   1.0000   1.0000   1.0000
     1.0000   1.0000   0.0000   0.0000   0.0000   0.0000   0.0000   0.0000
     0.0000   0.0000   0.0000   0.0000   0.0000   0.0000   0.0000   0.0000
     0.0000   0.0000   0.0000   0.0000   0.0000   0.0000   0.0000   0.0000
     0.0000   0.0000   0.0000   0.0000   0.0000   0.0000   0.0000   0.0000
     0.0000   0.0000   0.0000   0.0000   0.0000   0.0000   0.0000   0.0000
     0.0000   0.0000   0.0000   0.0000   0.0000   0.0000   0.0000   0.0000
     0.0000   0.0000   0.0000   0.0000

          k = 0.0000 0.2887 0.0000 ( 21761 PWs)   bands (ev):

   -87.6526 -87.6487 -87.6473 -87.6473 -87.6454 -87.6454 -87.6449 -87.6435
   -87.6435 -87.4284 -87.4283 -87.4246 -87.4245 -87.4233 -87.4233 -87.4231
   -87.4231 -87.4214 -87.4214 -87.4212 -87.4212 -87.4209 -87.4207 -87.4195
   -87.4195 -87.4193 -87.4193 -51.1609 -51.1517 -51.1517 -51.1504 -51.1504
   -51.1315 -51.1315 -51.1283 -51.1217 -51.1217 -51.1208 -51.1182 -51.1182
   -51.1175 -51.1148 -51.1148 -51.1145 -51.1117 -51.1117 -51.0926 -51.0926
   -51.0908 -51.0861 -51.0861 -51.0801 -51.0744 -51.0692 -50.9372 -50.9340
   -50.9282 -50.9282 -50.9269 -50.9269 -50.9254 -50.9254 -50.9247 -50.9247
   -50.9085 -50.9085 -50.9066 -50.9066 -50.8990 -50.8990 -50.8976 -50.8976
   -50.8946 -50.8937 -50.8872 -50.8811 -50.8799 -50.8792 -50.8792 -50.8772
   -50.8771 -50.8771 -50.8771 -50.8766 -50.8766 -50.8750 -50.8750 -50.8749
   -50.8749 -50.8748 -50.8744 -50.8744 -50.8707 -50.8707 -50.8703 -50.8703
   -50.8690 -50.8686 -50.8643 -50.8643 -50.8638 -50.8638 -50.8587 -50.8578
   -50.8528 -50.8523 -50.8480 -50.8473  -2.4034  -1.5812  -1.5326  -1.4748
    -1.4201  -1.4201  -1.4153  -1.3697  -1.3125  -1.3066  -1.3066  -1.2827
    -1.2827  -1.2143  -1.2143  -1.1868  -1.1474  -1.1474  -1.1395  -1.1395
    -1.1047  -1.0230  -1.0230  -0.9715  -0.9715  -0.9323  -0.9323  -0.8993
    -0.8941  -0.8941  -0.7626  -0.7563  -0.7563  -0.7414  -0.7414  -0.4856
    -0.4654  -0.4654  -0.4484  -0.4193  -0.4193  -0.3689  -0.3589  -0.3589
    -0.3534  -0.3262  -0.3262  -0.3252  -0.3005  -0.3005  -0.2623  -0.2623
    -0.2536  -0.2189  -0.2124  -0.0816  -0.0816  -0.0523  -0.0500  -0.0500
    -0.0450  -0.0320  -0.0320  -0.0105   0.0267   0.0267   0.0583   0.0583
     0.0833   0.0992   0.1058   0.2046   0.2046   0.2142   0.3061   0.3215
     0.3215   0.3256   0.3256   0.3871   0.3975   0.4110   0.4110   0.4776
     0.4776   0.4994   0.5229   0.5229   0.5908   0.5970   0.5970   0.6016
     0.6075   0.6075   0.6578   0.6609   0.6767   0.6767   0.6986   0.6986
     0.7204   0.7408   0.7409   0.7604   0.8155   0.8259   0.8635   0.8635
     0.8945   0.8945   0.9098   0.9239   0.9679   0.9679   1.0309   1.0309
     1.0565   1.0565   1.0729   1.0729   1.1319   1.1560   1.1564   1.1564
     1.2126   1.2269   1.2269   1.2369   1.2537   1.2578   1.2763   1.2763
     1.3099   1.3099   1.3415   1.3415   1.4202   1.4202   1.4376   1.4608
     1.9688   2.5976   2.5976   2.6228   2.6228   3.1390   3.1399   3.9099
     3.9099   4.4163   4.4834   5.0448   5.1112   5.1112   5.8238   5.8238
     6.2836   6.2836   6.5510   7.0888   7.1284   7.1284   7.9045   7.9045
     7.9362   7.9362   8.0115   8.5309   9.1339   9.1551   9.1551   9.2110
     9.2890   9.2890   9.4348   9.6325   9.6325   9.7208   9.7780   9.7780
     9.8149   9.8149  10.0308  10.0308  10.2359  10.4830  10.7986  10.8871
    10.8871  11.1390  11.1390  11.1737  11.1737  11.3503  11.3503  11.3587
    11.3587  11.6933  11.6933  11.7092

     occupation numbers 
     1.0000   1.0000   1.0000   1.0000   1.0000   1.0000   1.0000   1.0000
     1.0000   1.0000   1.0000   1.0000   1.0000   1.0000   1.0000   1.0000
     1.0000   1.0000   1.0000   1.0000   1.0000   1.0000   1.0000   1.0000
     1.0000   1.0000   1.0000   1.0000   1.0000   1.0000   1.0000   1.0000
     1.0000   1.0000   1.0000   1.0000   1.0000   1.0000   1.0000   1.0000
     1.0000   1.0000   1.0000   1.0000   1.0000   1.0000   1.0000   1.0000
     1.0000   1.0000   1.0000   1.0000   1.0000   1.0000   1.0000   1.0000
     1.0000   1.0000   1.0000   1.0000   1.0000   1.0000   1.0000   1.0000
     1.0000   1.0000   1.0000   1.0000   1.0000   1.0000   1.0000   1.0000
     1.0000   1.0000   1.0000   1.0000   1.0000   1.0000   1.0000   1.0000
     1.0000   1.0000   1.0000   1.0000   1.0000   1.0000   1.0000   1.0000
     1.0000   1.0000   1.0000   1.0000   1.0000   1.0000   1.0000   1.0000
     1.0000   1.0000   1.0000   1.0000   1.0000   1.0000   1.0000   1.0000
     1.0000   1.0000   1.0000   1.0000   1.0000   1.0000   1.0000   1.0000
     1.0000   1.0000   1.0000   1.0000   1.0000   1.0000   1.0000   1.0000
     1.0000   1.0000   1.0000   1.0000   1.0000   1.0000   1.0000   1.0000
     1.0000   1.0000   1.0000   1.0000   1.0000   1.0000   1.0000   1.0000
     1.0000   1.0000   1.0000   1.0000   1.0000   1.0000   1.0000   1.0000
     1.0000   1.0000   1.0000   1.0000   1.0000   1.0000   1.0000   1.0000
     1.0000   1.0000   1.0000   1.0000   1.0000   1.0000   1.0000   1.0000
     1.0000   1.0000   1.0000   1.0000   1.0000   1.0000   1.0000   1.0000
     1.0000   1.0000   1.0000   1.0000   1.0000   1.0000   1.0000   1.0000
     1.0000   1.0000   1.0000   1.0000   1.0000   1.0000   1.0000   1.0000
     1.0000   1.0000   1.0000   1.0000   1.0000   1.0000   1.0000   1.0000
     1.0000   1.0000   1.0000   1.0000   1.0000   1.0000   1.0000   1.0000
     1.0000   1.0000   1.0000   1.0000   1.0000   1.0000   1.0000   1.0000
     1.0000   1.0000   1.0000   1.0000   1.0000   1.0000   1.0000   1.0000
     1.0000   1.0000   1.0000   1.0000   1.0000   1.0000   1.0000   1.0000
     1.0000   1.0000   1.0000   1.0000   1.0000   1.0000   1.0000   1.0000
     1.0000   1.0000   1.0000   1.0000   1.0000   1.0000   1.0000   1.0000
     1.0000   1.0000   1.0000   1.0000   1.0000   1.0000   1.0000   1.0000
     1.0000   1.0000   1.0000   1.0000   1.0000   1.0000   1.0000   1.0000
     1.0000   0.0000   0.0000   0.0000   0.0000   0.0000   0.0000   0.0000
     0.0000   0.0000   0.0000   0.0000   0.0000   0.0000   0.0000   0.0000
     0.0000   0.0000   0.0000   0.0000   0.0000   0.0000   0.0000   0.0000
     0.0000   0.0000   0.0000   0.0000   0.0000   0.0000   0.0000   0.0000
     0.0000   0.0000   0.0000   0.0000   0.0000   0.0000   0.0000   0.0000
     0.0000   0.0000   0.0000   0.0000   0.0000   0.0000   0.0000   0.0000
     0.0000   0.0000   0.0000   0.0000

          k = 0.0000-0.5774 0.0000 ( 21688 PWs)   bands (ev):

   -87.6510 -87.6509 -87.6476 -87.6476 -87.6444 -87.6444 -87.6443 -87.6442
   -87.6442 -87.4268 -87.4268 -87.4267 -87.4266 -87.4235 -87.4235 -87.4234
   -87.4234 -87.4204 -87.4203 -87.4203 -87.4202 -87.4202 -87.4202 -87.4201
   -87.4201 -87.4201 -87.4200 -51.1681 -51.1548 -51.1548 -51.1547 -51.1547
   -51.1253 -51.1252 -51.1252 -51.1252 -51.1187 -51.1187 -51.1132 -51.1131
   -51.1130 -51.1130 -51.1129 -51.1051 -51.1050 -51.1050 -51.1050 -51.0929
   -51.0920 -51.0919 -51.0874 -51.0874 -51.0735 -51.0734 -50.9442 -50.9409
   -50.9314 -50.9314 -50.9314 -50.9313 -50.9284 -50.9284 -50.9284 -50.9284
   -50.9023 -50.9023 -50.9006 -50.9006 -50.8849 -50.8848 -50.8825 -50.8825
   -50.8824 -50.8824 -50.8823 -50.8823 -50.8822 -50.8822 -50.8794 -50.8794
   -50.8791 -50.8790 -50.8767 -50.8767 -50.8765 -50.8758 -50.8757 -50.8757
   -50.8756 -50.8744 -50.8744 -50.8744 -50.8743 -50.8734 -50.8711 -50.8706
   -50.8697 -50.8697 -50.8688 -50.8688 -50.8655 -50.8655 -50.8650 -50.8650
   -50.8523 -50.8522 -50.8514 -50.8513  -1.9270  -1.9269  -1.6344  -1.4788
    -1.3574  -1.2730  -1.2729  -1.2539  -1.2539  -1.2538  -1.2538  -1.2078
    -1.2078  -1.2078  -1.2077  -1.1636  -1.1525  -1.1524  -1.1043  -1.1043
    -1.1042  -1.1042  -1.0068  -1.0067  -0.9202  -0.9202  -0.8594  -0.8594
    -0.8447  -0.8447  -0.7388  -0.7387  -0.7387  -0.7387  -0.5480  -0.5480
    -0.5479  -0.5479  -0.5400  -0.5400  -0.5248  -0.4525  -0.4525  -0.3998
    -0.3427  -0.3427  -0.3334  -0.3334  -0.2758  -0.2757  -0.2190  -0.2190
    -0.2190  -0.2189  -0.1841  -0.1841  -0.1841  -0.1840  -0.1727  -0.1727
    -0.1430  -0.1430  -0.0781   0.0033   0.0034   0.0123   0.0124   0.0518
     0.0518   0.1085   0.1086   0.1204   0.1204   0.1240   0.1240   0.1240
     0.1240   0.1710   0.1710   0.3590   0.3591   0.4833   0.4833   0.4833
     0.4833   0.4842   0.4891   0.4892   0.5450   0.5450   0.5949   0.5949
     0.6329   0.6329   0.6329   0.6329   0.6480   0.6480   0.6534   0.6903
     0.6903   0.6904   0.6904   0.7075   0.7075   0.8564   0.8564   0.8573
     0.8573   0.8573   0.8574   0.8801   0.9086   0.9086   1.0106   1.0106
     1.0107   1.0107   1.0678   1.0678   1.1676   1.1833   1.1833   1.2464
     1.2464   1.2596   1.2596   1.2596   1.2596   1.2607   1.3338   1.4053
     1.4054   1.4054   1.4054   1.4344   1.4344   1.4604   1.4604   1.5469
     1.5666   2.5323   2.5323   3.6944   3.6945   4.0936   4.0936   4.0936
     4.0936   4.6270   4.9912   4.9912   5.3630   5.3630   5.3631   5.3631
     5.4744   5.8700   5.9146   5.9147   7.4069   7.4069   7.4069   7.4069
     7.7279   7.7279   8.1205   8.4608   8.4608   8.8370   8.8371   8.8371
     8.8371   8.9362   9.6436   9.6436   9.6686   9.6686   9.6911   9.9229
     9.9229   9.9230   9.9230  10.1162  10.1163  10.7171  10.7171  10.7171
    10.7171  10.9906  10.9906  11.2306  11.2306  12.1053  12.1783  12.1783
    12.1791  12.1793  12.2416  12.2416

     occupation numbers 
     1.0000   1.0000   1.0000   1.0000   1.0000   1.0000   1.0000   1.0000
     1.0000   1.0000   1.0000   1.0000   1.0000   1.0000   1.0000   1.0000
     1.0000   1.0000   1.0000   1.0000   1.0000   1.0000   1.0000   1.0000
     1.0000   1.0000   1.0000   1.0000   1.0000   1.0000   1.0000   1.0000
     1.0000   1.0000   1.0000   1.0000   1.0000   1.0000   1.0000   1.0000
     1.0000   1.0000   1.0000   1.0000   1.0000   1.0000   1.0000   1.0000
     1.0000   1.0000   1.0000   1.0000   1.0000   1.0000   1.0000   1.0000
     1.0000   1.0000   1.0000   1.0000   1.0000   1.0000   1.0000   1.0000
     1.0000   1.0000   1.0000   1.0000   1.0000   1.0000   1.0000   1.0000
     1.0000   1.0000   1.0000   1.0000   1.0000   1.0000   1.0000   1.0000
     1.0000   1.0000   1.0000   1.0000   1.0000   1.0000   1.0000   1.0000
     1.0000   1.0000   1.0000   1.0000   1.0000   1.0000   1.0000   1.0000
     1.0000   1.0000   1.0000   1.0000   1.0000   1.0000   1.0000   1.0000
     1.0000   1.0000   1.0000   1.0000   1.0000   1.0000   1.0000   1.0000
     1.0000   1.0000   1.0000   1.0000   1.0000   1.0000   1.0000   1.0000
     1.0000   1.0000   1.0000   1.0000   1.0000   1.0000   1.0000   1.0000
     1.0000   1.0000   1.0000   1.0000   1.0000   1.0000   1.0000   1.0000
     1.0000   1.0000   1.0000   1.0000   1.0000   1.0000   1.0000   1.0000
     1.0000   1.0000   1.0000   1.0000   1.0000   1.0000   1.0000   1.0000
[...]
     atom   18 type  1   force =    -0.00000067   -0.00000039   -0.00004857
     atom   19 type  1   force =    -0.00000258    0.00000149    0.16034282
     atom   20 type  1   force =     0.00000271   -0.00000588   -0.16027201
     atom   21 type  1   force =    -0.00000049    0.00000028   -0.00004080
     atom   22 type  1   force =     0.00000000   -0.00000298    0.16034282
     atom   23 type  1   force =     0.00000000    0.00000000   -0.16026465
     atom   24 type  1   force =    -0.00000411   -0.00000237   -0.00004062
     atom   25 type  1   force =     0.00000959    0.00000553    0.16033837
     atom   26 type  1   force =    -0.00000373    0.00000529   -0.16027201
     atom   27 type  1   force =     0.00000000   -0.00000056   -0.00004080
     The ionic contribution  to forces
     atom    1 type  1   force =    -0.00009300   -0.00321006  197.97553667
     atom    2 type  1   force =    -0.00007314   -0.00014645 -197.97040356
     atom    3 type  1   force =    -0.00269215   -0.00167753   -0.00429470
     atom    4 type  1   force =    -0.00134479   -0.00076303  197.97494739
     atom    5 type  1   force =     0.00230485   -0.00115808 -197.97071233
     atom    6 type  1   force =    -0.00012341   -0.00201344   -0.00501662
     atom    7 type  1   force =    -0.00272596    0.00156868  197.97548945
     atom    8 type  1   force =     0.00014864    0.00270335 -197.97070496
     atom    9 type  1   force =    -0.00182175    0.00105986   -0.00505719
     atom   10 type  1   force =    -0.00082856   -0.00060809  197.97478870
     atom   11 type  1   force =    -0.00216648   -0.00163475 -197.97070496
     atom   12 type  1   force =     0.00002517   -0.00043001   -0.00435544
     atom   13 type  1   force =     0.00124306   -0.00071163  197.97499956
     atom   14 type  1   force =    -0.00240010   -0.00113856 -197.97075953
     atom   15 type  1   force =    -0.00025073    0.00017955   -0.00439603
     atom   16 type  1   force =    -0.00000639    0.00154403  197.97494497
     atom   17 type  1   force =    -0.00002444    0.00010640 -197.96963187
     atom   18 type  1   force =     0.00171449    0.00113769   -0.00507614
     atom   19 type  1   force =     0.00094790   -0.00054815  197.97477261
     atom   20 type  1   force =     0.00225572   -0.00157137 -197.97071233
     atom   21 type  1   force =     0.00265958   -0.00157427   -0.00430415
     atom   22 type  1   force =     0.00011156    0.00102721  197.97477998
     atom   23 type  1   force =     0.00010185    0.00003348 -197.97012362
     atom   24 type  1   force =     0.00035771    0.00020498   -0.00438654
     atom   25 type  1   force =     0.00273268    0.00168001  197.97552552
     atom   26 type  1   force =    -0.00013410    0.00278625 -197.97075954
     atom   27 type  1   force =     0.00008181    0.00315392   -0.00438532
     The local contribution  to forces
     atom    1 type  1   force =     0.00056526    0.00371821 -198.13467224
     atom    2 type  1   force =    -0.00000000   -0.00000000  198.12954349
     atom    3 type  1   force =     0.00286405    0.00230307    0.00433074
     atom    4 type  1   force =     0.00188596    0.00132360 -198.13410097
     atom    5 type  1   force =    -0.00278530    0.00180633  198.12985283
     atom    6 type  1   force =    -0.00056250    0.00323485    0.00505871
     atom    7 type  1   force =     0.00329941   -0.00101746 -198.13467224
     atom    8 type  1   force =    -0.00059687   -0.00198414  198.12985283
     atom    9 type  1   force =     0.00119293    0.00019437    0.00505871
     atom   10 type  1   force =     0.00219726    0.00061590 -198.13391888
     atom   11 type  1   force =     0.00295697    0.00150898  198.12985283
     atom   12 type  1   force =     0.00020229    0.00111393    0.00438315
     atom   13 type  1   force =    -0.00075544    0.00132360 -198.13410097
     atom   14 type  1   force =     0.00278530    0.00180633  198.12985283
     atom   15 type  1   force =     0.00050334    0.00059250    0.00438315
     atom   16 type  1   force =     0.00056526   -0.00096391 -198.13410097
     atom   17 type  1   force =     0.00000000    0.00088745  198.12876081
     atom   18 type  1   force =    -0.00231793    0.00019437    0.00505871
     atom   19 type  1   force =     0.00047033    0.00061589 -198.13391889
     atom   20 type  1   force =    -0.00141989    0.00150898  198.12985283
     atom   21 type  1   force =    -0.00245948    0.00230307    0.00433074
     atom   22 type  1   force =     0.00133380   -0.00087967 -198.13391889
     atom   23 type  1   force =     0.00076854    0.00044372  198.12922625
     atom   24 type  1   force =    -0.00009877    0.00059250    0.00438315
     atom   25 type  1   force =    -0.00216889   -0.00101746 -198.13467225
     atom   26 type  1   force =     0.00059687   -0.00198414  198.12985283
     atom   27 type  1   force =     0.00020229   -0.00230723    0.00433074
     The core correction contribution to forces
     atom    1 type  1   force =     0.00000037    0.00000042   -0.00115857
     atom    2 type  1   force =    -0.00000000   -0.00000000    0.00115760
     atom    3 type  1   force =     0.00000016    0.00000053    0.00000327
     atom    4 type  1   force =     0.00000041    0.00000039   -0.00115857
     atom    5 type  1   force =    -0.00000029    0.00000042    0.00115763
     atom    6 type  1   force =    -0.00000038    0.00000082    0.00000334
     atom    7 type  1   force =     0.00000041    0.00000035   -0.00115857
     atom    8 type  1   force =    -0.00000028    0.00000041    0.00115763
     atom    9 type  1   force =    -0.00000036    0.00000080    0.00000334
     atom   10 type  1   force =     0.00000086    0.00000007   -0.00115859
     atom   11 type  1   force =     0.00000051    0.00000004    0.00115763
     atom   12 type  1   force =     0.00000013    0.00000050    0.00000326
     atom   13 type  1   force =     0.00000033    0.00000039   -0.00115857
     atom   14 type  1   force =     0.00000029    0.00000042    0.00115763
     atom   15 type  1   force =     0.00000013    0.00000051    0.00000326
     atom   16 type  1   force =     0.00000037    0.00000033   -0.00115857
     atom   17 type  1   force =     0.00000000    0.00000058    0.00115763
     atom   18 type  1   force =    -0.00000039    0.00000080    0.00000334
     atom   19 type  1   force =     0.00000089    0.00000007   -0.00115859
     atom   20 type  1   force =     0.00000050    0.00000004    0.00115763
     atom   21 type  1   force =     0.00000011    0.00000053    0.00000327
     atom   22 type  1   force =     0.00000088    0.00000010   -0.00115859
     atom   23 type  1   force =     0.00000051    0.00000029    0.00115759
     atom   24 type  1   force =     0.00000014    0.00000051    0.00000326
     atom   25 type  1   force =     0.00000033    0.00000035   -0.00115857
     atom   26 type  1   force =     0.00000028    0.00000041    0.00115763
     atom   27 type  1   force =     0.00000013    0.00000048    0.00000327
     The Hubbard contrib.    to forces
     atom    1 type  1   force =     0.00000000    0.00000000    0.00000000
     atom    2 type  1   force =     0.00000000    0.00000000    0.00000000
     atom    3 type  1   force =     0.00000000    0.00000000    0.00000000
     atom    4 type  1   force =     0.00000000    0.00000000    0.00000000
     atom    5 type  1   force =     0.00000000    0.00000000    0.00000000
     atom    6 type  1   force =     0.00000000    0.00000000    0.00000000
     atom    7 type  1   force =     0.00000000    0.00000000    0.00000000
     atom    8 type  1   force =     0.00000000    0.00000000    0.00000000
     atom    9 type  1   force =     0.00000000    0.00000000    0.00000000
     atom   10 type  1   force =     0.00000000    0.00000000    0.00000000
     atom   11 type  1   force =     0.00000000    0.00000000    0.00000000
     atom   12 type  1   force =     0.00000000    0.00000000    0.00000000
     atom   13 type  1   force =     0.00000000    0.00000000    0.00000000
     atom   14 type  1   force =     0.00000000    0.00000000    0.00000000
     atom   15 type  1   force =     0.00000000    0.00000000    0.00000000
     atom   16 type  1   force =     0.00000000    0.00000000    0.00000000
     atom   17 type  1   force =     0.00000000    0.00000000    0.00000000
     atom   18 type  1   force =     0.00000000    0.00000000    0.00000000
     atom   19 type  1   force =     0.00000000    0.00000000    0.00000000
     atom   20 type  1   force =     0.00000000    0.00000000    0.00000000
     atom   21 type  1   force =     0.00000000    0.00000000    0.00000000
     atom   22 type  1   force =     0.00000000    0.00000000    0.00000000
     atom   23 type  1   force =     0.00000000    0.00000000    0.00000000
     atom   24 type  1   force =     0.00000000    0.00000000    0.00000000
     atom   25 type  1   force =     0.00000000    0.00000000    0.00000000
     atom   26 type  1   force =     0.00000000    0.00000000    0.00000000
     atom   27 type  1   force =     0.00000000    0.00000000    0.00000000
     The SCF correction term to forces
     atom    1 type  1   force =    -0.00000000    0.00003858    0.00003433
     atom    2 type  1   force =     0.00000000   -0.00000000   -0.00004900
     atom    3 type  1   force =     0.00005878    0.00003394    0.00001082
     atom    4 type  1   force =    -0.00001222   -0.00000706    0.00001944
     atom    5 type  1   force =    -0.00003582    0.00003057   -0.00003062
     atom    6 type  1   force =     0.00000000    0.00003172    0.00000884
     atom    7 type  1   force =     0.00003341   -0.00001929    0.00003433
     atom    8 type  1   force =     0.00000856   -0.00004631   -0.00003063
     atom    9 type  1   force =     0.00002747   -0.00001586    0.00000884
     atom   10 type  1   force =     0.00004574    0.00002641    0.00001533
     atom   11 type  1   force =     0.00004439    0.00001574   -0.00003062
     atom   12 type  1   force =     0.00000000    0.00003612    0.00001079
     atom   13 type  1   force =     0.00001222   -0.00000706    0.00001944
     atom   14 type  1   force =     0.00003582    0.00003057   -0.00003062
     atom   15 type  1   force =     0.00003128   -0.00001806    0.00001079
     atom   16 type  1   force =    -0.00000000    0.00001411    0.00001944
     atom   17 type  1   force =     0.00000000   -0.00000000   -0.00002804
     atom   18 type  1   force =    -0.00002747   -0.00001586    0.00000884
     atom   19 type  1   force =    -0.00004574    0.00002641    0.00001534
     atom   20 type  1   force =    -0.00004439    0.00001574   -0.00003063
     atom   21 type  1   force =    -0.00005878    0.00003394    0.00001082
     atom   22 type  1   force =    -0.00000000   -0.00005282    0.00001533
     atom   23 type  1   force =    -0.00000000    0.00000000   -0.00001487
     atom   24 type  1   force =    -0.00003127   -0.00001806    0.00001079
     atom   25 type  1   force =    -0.00003341   -0.00001929    0.00003433
     atom   26 type  1   force =    -0.00000856   -0.00004631   -0.00003063
     atom   27 type  1   force =     0.00000000   -0.00006787    0.00001083

     Total force =     0.000203     Total SCF correction =     0.000251
     SCF correction compared to forces is large: reduce conv_thr to get better values


     Computing stress (Cartesian axis) and pressure


     negative rho (up, down):  5.843E-03 0.000E+00
          total   stress  (Ry/bohr**3)                   (kbar)     P=      -46.68
  -0.00033601   0.00000000   0.00000000          -49.43        0.00        0.00
   0.00000000  -0.00033601   0.00000000            0.00      -49.43        0.00
   0.00000000   0.00000000  -0.00027993            0.00        0.00      -41.18

     kinetic stress (kbar)  22651.65     -0.00      0.00
                               -0.00  22651.65     -0.00
                                0.00     -0.00  22714.52

     local   stress (kbar)-508910.26     -0.00     -0.00
                               -0.00-508910.26      0.00
                               -0.00      0.00 512678.97

     nonloc. stress (kbar)   2661.78     -0.00      0.00
                                0.00   2661.78      0.00
                                0.00      0.00   2636.13

     hartree stress (kbar) 264027.47     -0.00      0.00
                               -0.00 264027.47     -0.00
                                0.00     -0.00-238602.80

     exc-cor stress (kbar)  -4084.01     -0.00     -0.00
                               -0.00  -4084.01      0.00
                               -0.00      0.00  -4090.51

     corecor stress (kbar)   -552.73     -0.00      0.00
                               -0.00   -552.73     -0.00
                                0.00     -0.00   -552.64

     ewald   stress (kbar) 224156.67      0.00      0.00
                                0.00 224156.67     -0.00
                                0.00     -0.00-294824.85

     hubbard stress (kbar)      0.00      0.00      0.00
                                0.00      0.00      0.00
                                0.00      0.00      0.00

     DFT-D   stress (kbar)      0.00      0.00      0.00
                                0.00      0.00      0.00
                                0.00      0.00      0.00

     XDM     stress (kbar)      0.00      0.00      0.00
                                0.00      0.00      0.00
                                0.00      0.00      0.00

     dft-nl  stress (kbar)      0.00      0.00      0.00
                                0.00      0.00      0.00
                                0.00      0.00      0.00

     TS-vdW  stress (kbar)      0.00      0.00      0.00
                                0.00      0.00      0.00
                                0.00      0.00      0.00


     Energy error            =      4.8E-06
     Gradient error          =      5.7E-05

     bfgs converged in   8 scf cycles and   7 bfgs steps
     (criteria: energy <  1.0E-04 Ry, force <  1.0E-03 Ry/Bohr)

     End of BFGS Geometry Optimization

     Final energy   =   -7981.1180894731 Ry

     File ./surface.bfgs deleted, as requested
Begin final coordinates

ATOMIC_POSITIONS (angstrom)
Ag           -0.0000014710        1.6985695288        4.7627314408
Ag           -0.0000000000       -0.0000000000        0.0413594788
Ag            1.4709903123        0.8492749542        2.4021882087
Ag           -1.4709655322        4.2463496900        4.7626982431
Ag           -1.4710005463        2.5478158453        0.0413802876
Ag            0.0000014710        3.3970767888        2.4021951186
Ag           -2.9419258445        6.7941320156        4.7627314408
Ag           -2.9419550269        5.0955837414        0.0413802876
Ag           -1.4709709958        5.9448758378        2.4021951186
Ag            2.9419591170        1.6985425867        4.7626974913
Ag            2.9419735194        0.0000159194        0.0413802876
Ag            4.4129294710        0.8492638200        2.4021817425
Ag            1.4709625902        4.2463496900        4.7626982431
Ag            1.4710005463        2.5478158453        0.0413802876
Ag            2.9419502491        3.3970745692        2.4021817425
Ag           -0.0000014710        6.7941341800        4.7626982431
Ag            0.0000000000        5.0956103374        0.0414109342
Ag            1.4709739378        5.9448758378        2.4021951186
Ag            5.8838939410        1.6985425867        4.7626974913
Ag            5.8838824806        0.0000159194        0.0413802876
Ag            7.3548686297        0.8492749542        2.4021882087
Ag            4.4129265290        4.2463328806        4.7626974913
Ag            4.4129280000        2.5478051687        0.0414001267
Ag            5.8839086929        3.3970745692        2.4021817425
Ag            2.9419229025        6.7941320156        4.7627314408
Ag            2.9419550269        5.0955837414        0.0413802876
Ag            4.4129294710        5.9448630499        2.4021882087
End final coordinates



     Writing output data file ./surface.save/

     init_run     :      1.55s CPU      1.65s WALL (       1 calls)
     electrons    :    217.66s CPU    220.61s WALL (       8 calls)
     update_pot   :      1.25s CPU      1.26s WALL (       7 calls)
     forces       :      6.73s CPU      6.78s WALL (       8 calls)
     stress       :     21.12s CPU     21.26s WALL (       8 calls)

     Called by init_run:
     wfcinit      :      1.05s CPU      1.08s WALL (       1 calls)
     wfcinit:atom :      0.00s CPU      0.00s WALL (       4 calls)
     wfcinit:wfcr :      1.02s CPU      1.05s WALL (       4 calls)
     potinit      :      0.08s CPU      0.08s WALL (       1 calls)
     hinit0       :      0.14s CPU      0.19s WALL (       1 calls)

     Called by electrons:
     c_bands      :    188.38s CPU    190.55s WALL (      62 calls)
     sum_band     :     24.45s CPU     24.83s WALL (      62 calls)
     v_of_rho     :      1.41s CPU      1.43s WALL (      66 calls)
     v_h          :      0.09s CPU      0.09s WALL (      66 calls)
     v_xc         :      1.64s CPU      1.66s WALL (      82 calls)
     newd         :      3.52s CPU      3.54s WALL (      66 calls)
     mix_rho      :      0.13s CPU      0.14s WALL (      62 calls)

     Called by c_bands:
     init_us_2    :      0.50s CPU      0.51s WALL (     564 calls)
     cegterg      :    185.91s CPU    188.04s WALL (     248 calls)

     Called by sum_band:
     sum_band:wei :      0.02s CPU      0.02s WALL (      62 calls)
     sum_band:loo :     19.05s CPU     19.38s WALL (      62 calls)
     sum_band:buf :      0.20s CPU      0.21s WALL (     248 calls)
     sum_band:ini :      0.25s CPU      0.26s WALL (     248 calls)
     sum_band:cal :      6.80s CPU      6.84s WALL (     248 calls)
     sum_band:bec :      0.28s CPU      0.28s WALL (     248 calls)
     addusdens    :      2.71s CPU      2.75s WALL (      62 calls)
     addusd:skk   :      0.08s CPU      0.08s WALL (      62 calls)
     addusd:dgemm :      1.30s CPU      1.32s WALL (      62 calls)
     addusd:qvan2 :      1.11s CPU      1.12s WALL (      62 calls)

     Called by *egterg:
     cdiaghg      :     39.85s CPU     40.11s WALL (     857 calls)
     cegterg:over :     20.78s CPU     20.90s WALL (     653 calls)
     cegterg:upda :      9.52s CPU      9.59s WALL (     653 calls)
     cegterg:last :     25.45s CPU     25.61s WALL (     474 calls)
     cdiaghg:chol :      1.66s CPU      1.68s WALL (     857 calls)
     cdiaghg:inve :      2.07s CPU      2.08s WALL (     857 calls)
     cdiaghg:para :      5.15s CPU      5.19s WALL (    1714 calls)
     h_psi        :     75.91s CPU     77.36s WALL (     905 calls)
     s_psi        :      7.59s CPU      7.63s WALL (     905 calls)
     g_psi        :      0.10s CPU      0.10s WALL (     653 calls)

     Called by h_psi:
     h_psi:calbec :     16.99s CPU     17.11s WALL (     905 calls)
     vloc_psi     :     50.83s CPU     52.10s WALL (     905 calls)
     add_vuspsi   :      7.86s CPU      7.92s WALL (     905 calls)

     General routines
     calbec       :     28.95s CPU     29.15s WALL (    1313 calls)
     fft          :      1.44s CPU      1.50s WALL (    1053 calls)
     ffts         :      0.07s CPU      0.07s WALL (     128 calls)
     fftw         :     59.60s CPU     61.06s WALL (  434840 calls)
     interpolate  :      0.11s CPU      0.11s WALL (      66 calls)

     Parallel routines
     fft_scatt_xy :      3.13s CPU      3.20s WALL (  436021 calls)
     fft_scatt_yz :     41.87s CPU     42.99s WALL (  436021 calls)

     PWSCF        :   4m 9.83s CPU   4m13.91s WALL


   This run was terminated on:  19: 7:15   6Dec2021            

=------------------------------------------------------------------------------=
   JOB DONE.
=------------------------------------------------------------------------------=
