
     Program PWSCF v.6.7MaX starts on 10Dec2021 at  3:54:19 

     This program is part of the open-source Quantum ESPRESSO suite
     for quantum simulation of materials; please cite
         "P. Giannozzi et al., J. Phys.:Condens. Matter 21 395502 (2009);
         "P. Giannozzi et al., J. Phys.:Condens. Matter 29 465901 (2017);
          URL http://www.quantum-espresso.org", 
     in publications or presentations arising from this work. More details at
     http://www.quantum-espresso.org/quote

     Parallel version (MPI), running on    16 processors

     MPI processes distributed on     1 nodes
     R & G space division:  proc/nbgrp/npool/nimage =      16
     Reading input from pt_surface.100.qe.7656473.1_1_3.in

     Current dimensions of program PWSCF are:
     Max number of different atomic species (ntypx) = 10
     Max number of k-points (npk) =  40000
     Max angular momentum in pseudopotentials (lmaxx) =  3

     Subspace diagonalization in iterative solution of the eigenvalue problem:
     one sub-group per band group will be used
     scalapack distributed-memory algorithm (size of sub-group:  4*  4 procs)

     Found symmetry operation: I + ( -0.5000 -0.5000  0.0000)
     This is a supercell, fractional translations are disabled

     Parallelization info
     --------------------
     sticks:   dense  smooth     PW     G-vecs:    dense   smooth      PW
     Min          84      34     10                12840     3244     548
     Max          85      35     11                12863     3259     563
     Sum        1353     545    169               205653    51977    8841



     bravais-lattice index     =            8
     lattice parameter (alat)  =       7.5150  a.u.
     unit-cell volume          =    2340.4659 (a.u.)^3
     number of atoms/cell      =           12
     number of atomic types    =            1
     number of electrons       =       192.00
     number of Kohn-Sham states=          115
     kinetic-energy cutoff     =      30.0000  Ry
     charge density cutoff     =     300.0000  Ry
     scf convergence threshold =      1.0E-06
     mixing beta               =       0.3000
     number of iterations used =            8  plain     mixing
     energy convergence thresh.=      1.0E-04
     force convergence thresh. =      1.0E-03
     Exchange-correlation=  SLA  PW   PBX  PBC
                           (   1   4   3   4   0   0   0)
     nstep                     =           50


     celldm(1)=   7.515006  celldm(2)=   1.000000  celldm(3)=   5.514604
     celldm(4)=   0.000000  celldm(5)=   0.000000  celldm(6)=   0.000000

     crystal axes: (cart. coord. in units of alat)
               a(1) = (   1.000000   0.000000   0.000000 )  
               a(2) = (   0.000000   1.000000   0.000000 )  
               a(3) = (   0.000000   0.000000   5.514604 )  

     reciprocal axes: (cart. coord. in units 2 pi/alat)
               b(1) = (  1.000000  0.000000  0.000000 )  
               b(2) = (  0.000000  1.000000  0.000000 )  
               b(3) = (  0.000000  0.000000  0.181337 )  


     PseudoPot. # 1 for Pt read from file:
     /expanse/lustre/projects/csd622/tpascal/nano110/qe/pseudo/pt_pbe_v1.4.uspp.F.UPF
     MD5 check sum: f09d6de1a584b5a045c4fc126da2d0c4
     Pseudo is Ultrasoft + core correction, Zval = 16.0
     Generated by new atomic code, or converted to UPF format
     Using radial grid of  985 points,  6 beta functions with: 
                l(1) =   0
                l(2) =   0
                l(3) =   1
                l(4) =   1
                l(5) =   2
                l(6) =   2
     Q(r) pseudized with  8 coefficients,  rinner =    1.300   1.300   1.300
                                                       1.300   1.300

     atomic species   valence    mass     pseudopotential
        Pt            16.00   195.08400     Pt( 1.00)

      8 Sym. Ops. (no inversion) found


                                    s                        frac. trans.

      isym =  1     identity                                     

 cryst.   s( 1) = (     1          0          0      )
                  (     0          1          0      )
                  (     0          0          1      )

 cart.    s( 1) = (  1.0000000  0.0000000  0.0000000 )
                  (  0.0000000  1.0000000  0.0000000 )
                  (  0.0000000  0.0000000  1.0000000 )


      isym =  2     180 deg rotation - cart. axis [0,0,1]        

 cryst.   s( 2) = (    -1          0          0      )
                  (     0         -1          0      )
                  (     0          0          1      )

 cart.    s( 2) = ( -1.0000000  0.0000000  0.0000000 )
                  (  0.0000000 -1.0000000  0.0000000 )
                  (  0.0000000  0.0000000  1.0000000 )


      isym =  3      90 deg rotation - cart. axis [0,0,-1]       

 cryst.   s( 3) = (     0         -1          0      )
                  (     1          0          0      )
                  (     0          0          1      )

 cart.    s( 3) = (  0.0000000  1.0000000  0.0000000 )
                  ( -1.0000000  0.0000000  0.0000000 )
                  (  0.0000000  0.0000000  1.0000000 )


      isym =  4      90 deg rotation - cart. axis [0,0,1]        

 cryst.   s( 4) = (     0          1          0      )
                  (    -1          0          0      )
                  (     0          0          1      )

 cart.    s( 4) = (  0.0000000 -1.0000000  0.0000000 )
                  (  1.0000000  0.0000000  0.0000000 )
                  (  0.0000000  0.0000000  1.0000000 )


      isym =  5     inv. 180 deg rotation - cart. axis [0,1,0]   

 cryst.   s( 5) = (     1          0          0      )
                  (     0         -1          0      )
                  (     0          0          1      )

 cart.    s( 5) = (  1.0000000  0.0000000  0.0000000 )
                  (  0.0000000 -1.0000000  0.0000000 )
                  (  0.0000000  0.0000000  1.0000000 )


      isym =  6     inv. 180 deg rotation - cart. axis [1,0,0]   

 cryst.   s( 6) = (    -1          0          0      )
                  (     0          1          0      )
                  (     0          0          1      )

 cart.    s( 6) = ( -1.0000000  0.0000000  0.0000000 )
                  (  0.0000000  1.0000000  0.0000000 )
                  (  0.0000000  0.0000000  1.0000000 )


      isym =  7     inv. 180 deg rotation - cart. axis [1,1,0]   

 cryst.   s( 7) = (     0         -1          0      )
                  (    -1          0          0      )
                  (     0          0          1      )

 cart.    s( 7) = (  0.0000000 -1.0000000  0.0000000 )
                  ( -1.0000000  0.0000000  0.0000000 )
                  (  0.0000000  0.0000000  1.0000000 )


      isym =  8     inv. 180 deg rotation - cart. axis [1,-1,0]  

 cryst.   s( 8) = (     0          1          0      )
                  (     1          0          0      )
                  (     0          0          1      )

 cart.    s( 8) = (  0.0000000  1.0000000  0.0000000 )
                  (  1.0000000  0.0000000  0.0000000 )
                  (  0.0000000  0.0000000  1.0000000 )


     point group C_4v (4mm) 
     there are  5 classes
     the character table:

       E     2C4   C2    2s_v  2s_d 
A_1    1.00  1.00  1.00  1.00  1.00
A_2    1.00  1.00  1.00 -1.00 -1.00
B_1    1.00 -1.00  1.00  1.00 -1.00
B_2    1.00 -1.00  1.00 -1.00  1.00
E      2.00  0.00 -2.00  0.00  0.00

     the symmetry operations in each class and the name of the first element:

     E        1
          identity                                               
     2C4      3    4
           90 deg rotation - cart. axis [0,0,-1]                 
     C2       2
          180 deg rotation - cart. axis [0,0,1]                  
     2s_v     5    6
          inv. 180 deg rotation - cart. axis [0,1,0]             
     2s_d     7    8
          inv. 180 deg rotation - cart. axis [1,1,0]             

   Cartesian axes

     site n.     atom                  positions (alat units)
         1           Pt  tau(   1) = (   0.0000000   0.0000000   0.0000000  )
         2           Pt  tau(   2) = (   0.0000000   0.0000000   1.0000000  )
         3           Pt  tau(   3) = (   0.0000000   0.0000000   2.0000000  )
         4           Pt  tau(   4) = (   0.0000000   0.5000000   0.5000000  )
         5           Pt  tau(   5) = (   0.0000000   0.5000000   1.5000000  )
         6           Pt  tau(   6) = (   0.0000000   0.5000000   2.5000000  )
         7           Pt  tau(   7) = (   0.5000000   0.0000000   0.5000000  )
         8           Pt  tau(   8) = (   0.5000000   0.0000000   1.5000000  )
         9           Pt  tau(   9) = (   0.5000000   0.0000000   2.5000000  )
        10           Pt  tau(  10) = (   0.5000000   0.5000000   0.0000000  )
        11           Pt  tau(  11) = (   0.5000000   0.5000000   1.0000000  )
        12           Pt  tau(  12) = (   0.5000000   0.5000000   2.0000000  )

   Crystallographic axes

     site n.     atom                  positions (cryst. coord.)
         1           Pt  tau(   1) = (  0.0000000  0.0000000  0.0000000  )
         2           Pt  tau(   2) = (  0.0000000  0.0000000  0.1813367  )
         3           Pt  tau(   3) = (  0.0000000  0.0000000  0.3626734  )
         4           Pt  tau(   4) = (  0.0000000  0.5000000  0.0906683  )
         5           Pt  tau(   5) = (  0.0000000  0.5000000  0.2720050  )
         6           Pt  tau(   6) = (  0.0000000  0.5000000  0.4533417  )
         7           Pt  tau(   7) = (  0.5000000  0.0000000  0.0906683  )
         8           Pt  tau(   8) = (  0.5000000  0.0000000  0.2720050  )
         9           Pt  tau(   9) = (  0.5000000  0.0000000  0.4533417  )
        10           Pt  tau(  10) = (  0.5000000  0.5000000  0.0000000  )
        11           Pt  tau(  11) = (  0.5000000  0.5000000  0.1813367  )
        12           Pt  tau(  12) = (  0.5000000  0.5000000  0.3626734  )

     number of k points=     6  Gaussian smearing, width (Ry)=  0.0030
                       cart. coord. in units 2pi/alat
        k(    1) = (   0.0000000   0.0000000   0.0000000), wk =   0.1250000
        k(    2) = (   0.0000000   0.2500000   0.0000000), wk =   0.5000000
        k(    3) = (   0.0000000  -0.5000000   0.0000000), wk =   0.2500000
        k(    4) = (   0.2500000   0.2500000   0.0000000), wk =   0.5000000
        k(    5) = (   0.2500000  -0.5000000   0.0000000), wk =   0.5000000
        k(    6) = (  -0.5000000  -0.5000000   0.0000000), wk =   0.1250000

                       cryst. coord.
        k(    1) = (   0.0000000   0.0000000   0.0000000), wk =   0.1250000
        k(    2) = (   0.0000000   0.2500000   0.0000000), wk =   0.5000000
        k(    3) = (   0.0000000  -0.5000000   0.0000000), wk =   0.2500000
        k(    4) = (   0.2500000   0.2500000   0.0000000), wk =   0.5000000
        k(    5) = (   0.2500000  -0.5000000   0.0000000), wk =   0.5000000
        k(    6) = (  -0.5000000  -0.5000000   0.0000000), wk =   0.1250000

     Dense  grid:   205653 G-vectors     FFT dimensions: (  45,  45, 240)

     Smooth grid:    51977 G-vectors     FFT dimensions: (  27,  27, 150)

     Dynamical RAM for                 wfc:       0.71 MB

     Dynamical RAM for     wfc (w. buffer):       4.97 MB

     Dynamical RAM for           str. fact:       0.20 MB

     Dynamical RAM for           local pot:       0.00 MB

     Dynamical RAM for          nlocal pot:       1.33 MB

     Dynamical RAM for                qrad:       1.39 MB

     Dynamical RAM for          rho,v,vnew:       1.28 MB

     Dynamical RAM for               rhoin:       0.43 MB

     Dynamical RAM for            rho*nmix:       3.14 MB

     Dynamical RAM for           G-vectors:       0.76 MB

     Dynamical RAM for          h,s,v(r/c):       0.15 MB

     Dynamical RAM for          <psi|beta>:       0.38 MB

     Dynamical RAM for                 psi:       1.42 MB

     Dynamical RAM for                hpsi:       1.42 MB

     Dynamical RAM for                spsi:       1.42 MB

     Dynamical RAM for      wfcinit/wfcrot:       2.26 MB

     Dynamical RAM for           addusdens:      38.80 MB

     Dynamical RAM for          addusforce:      43.25 MB

     Dynamical RAM for         addusstress:      39.39 MB

     Estimated static dynamical RAM per process >      15.05 MB

     Estimated max dynamical RAM per process >      58.31 MB

     Estimated total dynamical RAM >     932.92 MB

     Initial potential from superposition of free atoms

     starting charge  185.99986, renormalised to  192.00000

     negative rho (up, down):  2.275E+00 0.000E+00
     Starting wfcs are  144 randomized atomic wfcs

     total cpu time spent up to now is        1.1 secs

     Self-consistent Calculation

     iteration #  1     ecut=    30.00 Ry     beta= 0.30
     Davidson diagonalization with overlap
     ethr =  1.00E-02,  avg # of iterations =  5.8

     negative rho (up, down):  2.172E+00 0.000E+00

     total cpu time spent up to now is        3.0 secs

     total energy              =   -2518.97623652 Ry
     estimated scf accuracy    <      28.65013722 Ry

     iteration #  2     ecut=    30.00 Ry     beta= 0.30
     Davidson diagonalization with overlap
     ethr =  1.00E-02,  avg # of iterations =  7.2

     negative rho (up, down):  2.167E+00 0.000E+00

     total cpu time spent up to now is        5.4 secs

     total energy              =   -2503.83157959 Ry
     estimated scf accuracy    <     809.99828263 Ry

     iteration #  3     ecut=    30.00 Ry     beta= 0.30
     Davidson diagonalization with overlap
     ethr =  1.00E-02,  avg # of iterations =  5.5

     negative rho (up, down):  2.151E+00 0.000E+00

     total cpu time spent up to now is        7.4 secs

     total energy              =   -2526.73329318 Ry
     estimated scf accuracy    <       8.77062945 Ry

     iteration #  4     ecut=    30.00 Ry     beta= 0.30
     Davidson diagonalization with overlap
     ethr =  4.57E-03,  avg # of iterations =  2.3

     negative rho (up, down):  2.148E+00 0.000E+00

     total cpu time spent up to now is        8.9 secs

     total energy              =   -2525.91009294 Ry
     estimated scf accuracy    <      49.12552170 Ry

     iteration #  5     ecut=    30.00 Ry     beta= 0.30
     Davidson diagonalization with overlap
     ethr =  4.57E-03,  avg # of iterations =  3.2

     negative rho (up, down):  2.141E+00 0.000E+00

     total cpu time spent up to now is       10.3 secs

     total energy              =   -2525.55250558 Ry
     estimated scf accuracy    <     218.28118541 Ry

     iteration #  6     ecut=    30.00 Ry     beta= 0.30
     Davidson diagonalization with overlap
     ethr =  4.57E-03,  avg # of iterations =  2.0

     negative rho (up, down):  2.136E+00 0.000E+00

     total cpu time spent up to now is       11.6 secs

     total energy              =   -2527.73115025 Ry
     estimated scf accuracy    <       3.18125961 Ry

     iteration #  7     ecut=    30.00 Ry     beta= 0.30
     Davidson diagonalization with overlap
     ethr =  1.66E-03,  avg # of iterations =  3.5

     negative rho (up, down):  2.129E+00 0.000E+00

     total cpu time spent up to now is       13.1 secs

     total energy              =   -2527.79489970 Ry
     estimated scf accuracy    <       8.86649523 Ry

     iteration #  8     ecut=    30.00 Ry     beta= 0.30
     Davidson diagonalization with overlap
     ethr =  1.66E-03,  avg # of iterations =  2.7

     negative rho (up, down):  2.125E+00 0.000E+00

     total cpu time spent up to now is       14.5 secs

     total energy              =   -2527.97054592 Ry
     estimated scf accuracy    <       4.08981460 Ry

     iteration #  9     ecut=    30.00 Ry     beta= 0.30
     Davidson diagonalization with overlap
     ethr =  1.66E-03,  avg # of iterations =  1.0

     negative rho (up, down):  2.119E+00 0.000E+00

     total cpu time spent up to now is       15.7 secs

     total energy              =   -2527.99472012 Ry
     estimated scf accuracy    <       0.15847915 Ry

     iteration # 10     ecut=    30.00 Ry     beta= 0.30
     Davidson diagonalization with overlap
     ethr =  8.25E-05,  avg # of iterations =  6.3

     negative rho (up, down):  2.116E+00 0.000E+00

     total cpu time spent up to now is       17.3 secs

     total energy              =   -2528.00590401 Ry
     estimated scf accuracy    <       1.33576632 Ry

     iteration # 11     ecut=    30.00 Ry     beta= 0.30
     Davidson diagonalization with overlap
     ethr =  8.25E-05,  avg # of iterations =  4.2

     negative rho (up, down):  2.113E+00 0.000E+00

     total cpu time spent up to now is       18.8 secs

     total energy              =   -2527.99835847 Ry
     estimated scf accuracy    <       0.38749587 Ry

     iteration # 12     ecut=    30.00 Ry     beta= 0.30
     Davidson diagonalization with overlap
     ethr =  8.25E-05,  avg # of iterations =  2.7

     negative rho (up, down):  2.113E+00 0.000E+00

     total cpu time spent up to now is       20.2 secs

     total energy              =   -2528.00853859 Ry
     estimated scf accuracy    <       1.43105349 Ry

     iteration # 13     ecut=    30.00 Ry     beta= 0.30
     Davidson diagonalization with overlap
     ethr =  8.25E-05,  avg # of iterations =  1.0

     negative rho (up, down):  2.113E+00 0.000E+00

     total cpu time spent up to now is       21.4 secs

     total energy              =   -2528.00817036 Ry
     estimated scf accuracy    <       0.24434217 Ry

     iteration # 14     ecut=    30.00 Ry     beta= 0.30
     Davidson diagonalization with overlap
     ethr =  8.25E-05,  avg # of iterations =  1.0

     negative rho (up, down):  2.113E+00 0.000E+00

     total cpu time spent up to now is       22.5 secs

     total energy              =   -2528.00941979 Ry
     estimated scf accuracy    <       0.02873153 Ry

     iteration # 15     ecut=    30.00 Ry     beta= 0.30
     Davidson diagonalization with overlap
     ethr =  1.50E-05,  avg # of iterations =  1.7

     negative rho (up, down):  2.113E+00 0.000E+00

     total cpu time spent up to now is       23.8 secs

     total energy              =   -2528.00956220 Ry
     estimated scf accuracy    <       0.01138969 Ry

     iteration # 16     ecut=    30.00 Ry     beta= 0.30
     Davidson diagonalization with overlap
     ethr =  5.93E-06,  avg # of iterations =  2.8

     negative rho (up, down):  2.113E+00 0.000E+00

     total cpu time spent up to now is       25.2 secs

     total energy              =   -2528.00965661 Ry
     estimated scf accuracy    <       0.00091132 Ry

     iteration # 17     ecut=    30.00 Ry     beta= 0.30
     Davidson diagonalization with overlap
     ethr =  4.75E-07,  avg # of iterations =  6.8

     negative rho (up, down):  2.113E+00 0.000E+00

     total cpu time spent up to now is       26.9 secs

     total energy              =   -2528.00966416 Ry
     estimated scf accuracy    <       0.00006877 Ry

     iteration # 18     ecut=    30.00 Ry     beta= 0.30
     Davidson diagonalization with overlap
     ethr =  3.58E-08,  avg # of iterations =  1.5

     negative rho (up, down):  2.113E+00 0.000E+00

     total cpu time spent up to now is       28.2 secs

     total energy              =   -2528.00966511 Ry
     estimated scf accuracy    <       0.00000488 Ry

     iteration # 19     ecut=    30.00 Ry     beta= 0.30
     Davidson diagonalization with overlap
     ethr =  2.54E-09,  avg # of iterations =  1.3

     negative rho (up, down):  2.113E+00 0.000E+00

     total cpu time spent up to now is       29.4 secs

     End of self-consistent calculation

          k = 0.0000 0.0000 0.0000 (  6561 PWs)   bands (ev):

   -43.8479 -43.8441 -43.8441 -43.7645 -43.7645 -43.7580 -43.6853 -43.6853
   -43.6544 -43.6540 -43.6506 -43.6504 -43.6504 -43.6504 -43.6418 -43.6236
   -43.6236 -43.5638 -43.5638 -43.5408 -43.5017 -43.5017 -43.4850 -43.4850
   -43.1807 -43.1807 -43.1806 -43.1806 -42.9935 -42.9935 -42.9934 -42.9934
   -42.8781 -42.8778 -42.8511 -42.8509  -0.4363   0.5186   1.7564   2.4404
     2.6055   2.6057   2.9454   2.9792   3.0030   3.0030   3.0069   3.2510
     3.2511   3.3815   3.6712   3.6712   3.9632   4.1340   4.1341   4.5967
     4.6727   4.6727   5.1485   5.4101   5.6225   5.6225   5.9378   5.9378
     6.1798   6.1798   6.5799   6.5826   6.9916   6.9916   7.1530   7.3773
     7.3904   7.3904   7.5528   7.5530   7.5600   7.8704   7.9354   7.9354
     8.0222   8.2521   8.3498   8.3499   8.6389   8.8053   8.8053   8.8235
     8.8235   8.8608   8.8609   9.0032   9.0680   9.3024   9.3024   9.4314
     9.4317   9.4908   9.4909   9.9484   9.9484   9.9875  10.9465  11.7749
    11.7749  13.6414  13.6414  14.3433  15.0470  15.6469  15.6469  16.0739
    16.0740  16.7144  16.7144

     occupation numbers 
     1.0000   1.0000   1.0000   1.0000   1.0000   1.0000   1.0000   1.0000
     1.0000   1.0000   1.0000   1.0000   1.0000   1.0000   1.0000   1.0000
     1.0000   1.0000   1.0000   1.0000   1.0000   1.0000   1.0000   1.0000
     1.0000   1.0000   1.0000   1.0000   1.0000   1.0000   1.0000   1.0000
     1.0000   1.0000   1.0000   1.0000   1.0000   1.0000   1.0000   1.0000
     1.0000   1.0000   1.0000   1.0000   1.0000   1.0000   1.0000   1.0000
     1.0000   1.0000   1.0000   1.0000   1.0000   1.0000   1.0000   1.0000
     1.0000   1.0000   1.0000   1.0000   1.0000   1.0000   1.0000   1.0000
     1.0000   1.0000   1.0000   1.0000   1.0000   1.0000   1.0000   1.0000
     1.0000   1.0000   1.0000   1.0000   1.0000   1.0000   1.0000   1.0000
     1.0000   1.0000   1.0000   1.0000   1.0000   1.0000   1.0000   1.0000
     1.0000   1.0000   1.0000   0.3949   0.0060   0.0000   0.0000   0.0000
     0.0000   0.0000   0.0000   0.0000   0.0000   0.0000   0.0000   0.0000
     0.0000   0.0000   0.0000   0.0000   0.0000   0.0000   0.0000   0.0000
     0.0000   0.0000   0.0000

          k = 0.0000 0.2500 0.0000 (  6485 PWs)   bands (ev):

   -43.8248 -43.8119 -43.8094 -43.7692 -43.7656 -43.7351 -43.7187 -43.6823
   -43.6764 -43.6645 -43.6585 -43.6561 -43.6264 -43.6201 -43.6155 -43.6146
   -43.6028 -43.5931 -43.5858 -43.5485 -43.5306 -43.5287 -43.5096 -43.5042
   -43.1536 -43.1536 -43.1535 -43.1534 -43.0220 -43.0219 -43.0212 -43.0211
   -42.8729 -42.8727 -42.8543 -42.8541   0.3307   1.2143   2.3654   2.8412
     3.0200   3.0855   3.3024   3.3033   3.4179   3.5622   3.5727   3.6150
     3.7919   3.8042   3.8216   3.9065   4.2706   4.3522   4.5671   4.7068
     4.7419   4.7776   4.9746   5.4882   5.5701   5.7505   5.7765   5.7806
     5.7904   5.8911   6.1088   6.1505   6.4949   6.6568   6.8360   6.9112
     6.9503   7.0556   7.2150   7.3091   7.4330   7.5508   7.6454   7.7511
     7.8499   7.8607   8.0154   8.0258   8.0269   8.1381   8.1411   8.3135
     8.4229   8.4462   8.5482   8.5710   8.6007   8.6299   8.7385   8.7599
     9.0152   9.1247   9.1828   9.2778   9.2967  10.2195  10.7093  11.8429
    12.0761  13.1696  13.2029  14.2605  14.3015  15.0196  15.5515  15.5833
    15.6162  17.3030  17.5074

     occupation numbers 
     1.0000   1.0000   1.0000   1.0000   1.0000   1.0000   1.0000   1.0000
     1.0000   1.0000   1.0000   1.0000   1.0000   1.0000   1.0000   1.0000
     1.0000   1.0000   1.0000   1.0000   1.0000   1.0000   1.0000   1.0000
     1.0000   1.0000   1.0000   1.0000   1.0000   1.0000   1.0000   1.0000
     1.0000   1.0000   1.0000   1.0000   1.0000   1.0000   1.0000   1.0000
     1.0000   1.0000   1.0000   1.0000   1.0000   1.0000   1.0000   1.0000
     1.0000   1.0000   1.0000   1.0000   1.0000   1.0000   1.0000   1.0000
     1.0000   1.0000   1.0000   1.0000   1.0000   1.0000   1.0000   1.0000
     1.0000   1.0000   1.0000   1.0000   1.0000   1.0000   1.0000   1.0000
     1.0000   1.0000   1.0000   1.0000   1.0000   1.0000   1.0000   1.0000
     1.0000   1.0000   1.0000   1.0000   1.0000   1.0000   1.0000   1.0000
     1.0000   1.0000   1.0000   1.0000   1.0000   1.0000   1.0000   1.0000
     0.2471   0.0000   0.0000   0.0000   0.0000   0.0000   0.0000   0.0000
     0.0000   0.0000   0.0000   0.0000   0.0000   0.0000   0.0000   0.0000
     0.0000   0.0000   0.0000

          k = 0.0000-0.5000 0.0000 (  6498 PWs)   bands (ev):

   -43.7753 -43.7751 -43.7726 -43.7725 -43.7362 -43.7360 -43.7343 -43.7342
   -43.6642 -43.6642 -43.6525 -43.6524 -43.6284 -43.6283 -43.6069 -43.6067
   -43.5940 -43.5938 -43.5685 -43.5684 -43.5558 -43.5557 -43.5479 -43.5477
   -43.0887 -43.0887 -43.0887 -43.0886 -43.0877 -43.0877 -43.0877 -43.0876
   -42.8628 -42.8628 -42.8626 -42.8625   2.1694   2.1694   2.8686   2.8686
     3.6041   3.6041   3.8992   3.8992   4.0895   4.0895   4.1300   4.1300
     4.4000   4.4001   4.4451   4.4452   4.6237   4.6237   4.7151   4.7152
     4.8692   4.8692   4.8982   4.8983   5.1662   5.1662   5.4952   5.4953
     5.6461   5.6462   5.9123   5.9123   6.6688   6.6688   6.6740   6.6741
     6.7419   6.7419   6.8016   6.8017   6.9349   6.9350   7.0313   7.0313
     7.1540   7.1541   7.2595   7.2596   7.3013   7.3014   7.4687   7.4687
     7.4829   7.4830   7.8521   7.8522   8.2356   8.2356   8.6436   8.6436
     8.7037   8.7037   9.2341   9.2341   9.6607   9.6608  10.8049  10.8049
    12.2011  12.2011  13.9228  13.9229  15.7061  15.7062  16.5303  16.5303
    17.1069  17.1072  17.5771

     occupation numbers 
     1.0000   1.0000   1.0000   1.0000   1.0000   1.0000   1.0000   1.0000
     1.0000   1.0000   1.0000   1.0000   1.0000   1.0000   1.0000   1.0000
     1.0000   1.0000   1.0000   1.0000   1.0000   1.0000   1.0000   1.0000
     1.0000   1.0000   1.0000   1.0000   1.0000   1.0000   1.0000   1.0000
     1.0000   1.0000   1.0000   1.0000   1.0000   1.0000   1.0000   1.0000
     1.0000   1.0000   1.0000   1.0000   1.0000   1.0000   1.0000   1.0000
     1.0000   1.0000   1.0000   1.0000   1.0000   1.0000   1.0000   1.0000
     1.0000   1.0000   1.0000   1.0000   1.0000   1.0000   1.0000   1.0000
     1.0000   1.0000   1.0000   1.0000   1.0000   1.0000   1.0000   1.0000
     1.0000   1.0000   1.0000   1.0000   1.0000   1.0000   1.0000   1.0000
     1.0000   1.0000   1.0000   1.0000   1.0000   1.0000   1.0000   1.0000
     1.0000   1.0000   1.0000   1.0000   1.0000   1.0000   1.0000   1.0000
     1.0000   1.0000   0.0000   0.0000   0.0000   0.0000   0.0000   0.0000
     0.0000   0.0000   0.0000   0.0000   0.0000   0.0000   0.0000   0.0000
     0.0000   0.0000   0.0000

          k = 0.2500 0.2500 0.0000 (  6507 PWs)   bands (ev):

   -43.8306 -43.8304 -43.8125 -43.7981 -43.7648 -43.7648 -43.7341 -43.6761
   -43.6650 -43.6650 -43.6317 -43.6316 -43.6302 -43.6143 -43.6140 -43.6031
   -43.5983 -43.5813 -43.5813 -43.5690 -43.5521 -43.5327 -43.4973 -43.4896
   -43.1865 -43.1864 -43.0957 -43.0956 -43.0813 -43.0812 -42.9865 -42.9864
   -42.8695 -42.8693 -42.8566 -42.8564   0.9727   1.6458   2.4506   3.0445
     3.1991   3.1991   3.3232   3.3233   3.5005   3.5704   3.6701   3.6701
     4.0433   4.1699   4.1700   4.5351   4.6726   4.6726   5.0131   5.0131
     5.0234   5.1890   5.3246   5.5277   5.6830   5.8009   5.8010   5.8598
     5.8931   5.9146   5.9650   5.9651   5.9675   6.0013   6.3458   6.6745
     6.7027   6.7304   6.7561   6.7562   6.9469   6.9469   7.2402   7.2402
     7.2712   7.3064   7.7576   7.8082   7.8930   7.9592   7.9592   7.9688
     8.1116   8.4578   8.4579   8.5784   8.9666   8.9728   9.0038   9.0039
     9.0501   9.1165   9.1166   9.1673  10.7354  11.3081  11.3081  12.0660
    12.0660  12.7348  12.9773  12.9773  14.1562  14.1562  14.4121  15.1682
    15.6054  15.6055  15.6975

     occupation numbers 
     1.0000   1.0000   1.0000   1.0000   1.0000   1.0000   1.0000   1.0000
     1.0000   1.0000   1.0000   1.0000   1.0000   1.0000   1.0000   1.0000
     1.0000   1.0000   1.0000   1.0000   1.0000   1.0000   1.0000   1.0000
     1.0000   1.0000   1.0000   1.0000   1.0000   1.0000   1.0000   1.0000
     1.0000   1.0000   1.0000   1.0000   1.0000   1.0000   1.0000   1.0000
     1.0000   1.0000   1.0000   1.0000   1.0000   1.0000   1.0000   1.0000
     1.0000   1.0000   1.0000   1.0000   1.0000   1.0000   1.0000   1.0000
     1.0000   1.0000   1.0000   1.0000   1.0000   1.0000   1.0000   1.0000
     1.0000   1.0000   1.0000   1.0000   1.0000   1.0000   1.0000   1.0000
     1.0000   1.0000   1.0000   1.0000   1.0000   1.0000   1.0000   1.0000
     1.0000   1.0000   1.0000   1.0000   1.0000   1.0000   1.0000   1.0000
     1.0000   1.0000   1.0000   1.0000   0.8419   0.7847   0.3865   0.3854
     0.0293   0.0000   0.0000   0.0000   0.0000   0.0000   0.0000   0.0000
     0.0000   0.0000   0.0000   0.0000   0.0000   0.0000   0.0000   0.0000
     0.0000   0.0000   0.0000

          k = 0.2500-0.5000 0.0000 (  6468 PWs)   bands (ev):

   -43.8356 -43.8356 -43.8242 -43.8241 -43.7549 -43.7549 -43.7385 -43.7385
   -43.6673 -43.6672 -43.6516 -43.6515 -43.5969 -43.5968 -43.5921 -43.5920
   -43.5703 -43.5702 -43.5641 -43.5640 -43.5253 -43.5253 -43.5202 -43.5202
   -43.1632 -43.1632 -43.1631 -43.1631 -43.0116 -43.0116 -43.0116 -43.0116
   -42.8625 -42.8625 -42.8623 -42.8622   2.4257   2.4258   2.5515   2.5515
     2.8954   2.8954   3.3122   3.3122   3.9102   3.9102   4.1987   4.1987
     4.3977   4.3977   4.7728   4.7729   4.8290   4.8291   5.1786   5.1786
     5.2766   5.2766   5.4250   5.4251   5.5674   5.5675   5.7508   5.7509
     5.8124   5.8124   5.9490   5.9490   6.0750   6.0750   6.2143   6.2143
     6.3990   6.3990   6.5440   6.5440   6.8825   6.8825   6.9968   6.9968
     7.1814   7.1814   7.6357   7.6357   7.9772   7.9772   8.0610   8.0611
     8.5221   8.5222   8.6672   8.6672   8.6767   8.6767   8.7514   8.7514
     8.9817   8.9817   9.0262   9.0262   9.5516   9.5517  10.7477  10.7477
    12.4752  12.4752  13.3145  13.3145  14.1740  14.1740  14.3140  14.3140
    15.6823  15.6823  16.2940

     occupation numbers 
     1.0000   1.0000   1.0000   1.0000   1.0000   1.0000   1.0000   1.0000
     1.0000   1.0000   1.0000   1.0000   1.0000   1.0000   1.0000   1.0000
     1.0000   1.0000   1.0000   1.0000   1.0000   1.0000   1.0000   1.0000
     1.0000   1.0000   1.0000   1.0000   1.0000   1.0000   1.0000   1.0000
     1.0000   1.0000   1.0000   1.0000   1.0000   1.0000   1.0000   1.0000
     1.0000   1.0000   1.0000   1.0000   1.0000   1.0000   1.0000   1.0000
     1.0000   1.0000   1.0000   1.0000   1.0000   1.0000   1.0000   1.0000
     1.0000   1.0000   1.0000   1.0000   1.0000   1.0000   1.0000   1.0000
     1.0000   1.0000   1.0000   1.0000   1.0000   1.0000   1.0000   1.0000
     1.0000   1.0000   1.0000   1.0000   1.0000   1.0000   1.0000   1.0000
     1.0000   1.0000   1.0000   1.0000   1.0000   1.0000   1.0000   1.0000
     1.0000   1.0000   1.0000   1.0000   1.0000   1.0000   1.0000   1.0000
     0.6839   0.6839   0.1440   0.1437   0.0000   0.0000   0.0000   0.0000
     0.0000   0.0000   0.0000   0.0000   0.0000   0.0000   0.0000   0.0000
     0.0000   0.0000   0.0000

          k =-0.5000-0.5000 0.0000 (  6460 PWs)   bands (ev):

   -43.8647 -43.8647 -43.8646 -43.8646 -43.7698 -43.7698 -43.7697 -43.7697
   -43.6556 -43.6554 -43.6554 -43.6553 -43.5828 -43.5828 -43.5827 -43.5826
   -43.5552 -43.5552 -43.5548 -43.5548 -43.4952 -43.4952 -43.4951 -43.4951
   -43.1938 -43.1937 -43.1937 -43.1937 -42.9795 -42.9795 -42.9794 -42.9794
   -42.8622 -42.8622 -42.8621 -42.8620   2.3046   2.3046   2.3046   2.3046
     2.9256   2.9256   2.9256   2.9256   3.8402   3.8402   3.8402   3.8402
     5.1075   5.1075   5.1075   5.1076   5.2025   5.2026   5.2026   5.2026
     5.4353   5.4353   5.4353   5.4353   5.5718   5.5718   5.5718   5.5719
     5.8974   5.8974   5.8974   5.8975   6.1067   6.1067   6.1068   6.1069
     6.8152   6.8152   6.8152   6.8153   6.8880   6.8880   6.8881   6.8881
     7.9023   7.9023   7.9024   7.9024   8.4440   8.4440   8.4440   8.4440
     8.5951   8.5951   8.5951   8.5951   8.9691   8.9692   8.9692   8.9692
     9.7442   9.7442   9.7442   9.7443  10.6116  10.6116  10.6117  10.6117
    10.7954  10.7954  10.7955  10.7955  13.1321  13.1321  13.1322  13.1322
    15.4139  15.4139  15.4139

     occupation numbers 
     1.0000   1.0000   1.0000   1.0000   1.0000   1.0000   1.0000   1.0000
     1.0000   1.0000   1.0000   1.0000   1.0000   1.0000   1.0000   1.0000
     1.0000   1.0000   1.0000   1.0000   1.0000   1.0000   1.0000   1.0000
     1.0000   1.0000   1.0000   1.0000   1.0000   1.0000   1.0000   1.0000
     1.0000   1.0000   1.0000   1.0000   1.0000   1.0000   1.0000   1.0000
     1.0000   1.0000   1.0000   1.0000   1.0000   1.0000   1.0000   1.0000
     1.0000   1.0000   1.0000   1.0000   1.0000   1.0000   1.0000   1.0000
     1.0000   1.0000   1.0000   1.0000   1.0000   1.0000   1.0000   1.0000
     1.0000   1.0000   1.0000   1.0000   1.0000   1.0000   1.0000   1.0000
     1.0000   1.0000   1.0000   1.0000   1.0000   1.0000   1.0000   1.0000
     1.0000   1.0000   1.0000   1.0000   1.0000   1.0000   1.0000   1.0000
     1.0000   1.0000   1.0000   1.0000   0.8195   0.8191   0.8191   0.8191
     0.0000   0.0000   0.0000   0.0000   0.0000   0.0000   0.0000   0.0000
     0.0000   0.0000   0.0000   0.0000   0.0000   0.0000   0.0000   0.0000
     0.0000   0.0000   0.0000

     the Fermi energy is     8.9955 ev

!    total energy              =   -2528.00966544 Ry
     estimated scf accuracy    <       0.00000035 Ry
     smearing contrib. (-TS)   =      -0.00340494 Ry
     internal energy E=F+TS    =   -2528.00626049 Ry

     The total energy is F=E-TS. E is the sum of the following terms:
     one-electron contribution =  -12292.88108873 Ry
     hartree contribution      =    6228.05639722 Ry
     xc contribution           =    -682.13621800 Ry
     ewald contribution        =    4218.95464902 Ry

     convergence has been achieved in  19 iterations

     negative rho (up, down):  2.113E+00 0.000E+00

     Forces acting on atoms (cartesian axes, Ry/au):

     atom    1 type  1   force =     0.00000000    0.00000000    0.01890760
     atom    2 type  1   force =     0.00000000    0.00000000    0.00199120
     atom    3 type  1   force =     0.00000000    0.00000000    0.01256850
     atom    4 type  1   force =     0.00000000    0.00000000   -0.01252363
     atom    5 type  1   force =     0.00000000    0.00000000   -0.00205565
     atom    6 type  1   force =     0.00000000    0.00000000   -0.01887186
     atom    7 type  1   force =     0.00000000    0.00000000   -0.01252363
     atom    8 type  1   force =     0.00000000    0.00000000   -0.00205565
     atom    9 type  1   force =     0.00000000    0.00000000   -0.01887186
     atom   10 type  1   force =     0.00000000    0.00000000    0.01888941
     atom   11 type  1   force =     0.00000000    0.00000000    0.00196405
     atom   12 type  1   force =     0.00000000    0.00000000    0.01258152
     The non-local contrib.  to forces
     atom    1 type  1   force =     0.00000000    0.00000000   -0.07606447
     atom    2 type  1   force =     0.00000000    0.00000000    0.00262552
     atom    3 type  1   force =     0.00000000    0.00000000    0.00958143
     atom    4 type  1   force =     0.00000000    0.00000000   -0.00959114
     atom    5 type  1   force =     0.00000000    0.00000000   -0.00270109
     atom    6 type  1   force =     0.00000000    0.00000000    0.07605285
     atom    7 type  1   force =     0.00000000    0.00000000   -0.00959114
     atom    8 type  1   force =     0.00000000    0.00000000   -0.00270109
     atom    9 type  1   force =     0.00000000    0.00000000    0.07605285
     atom   10 type  1   force =     0.00000000    0.00000000   -0.07605395
     atom   11 type  1   force =     0.00000000    0.00000000    0.00261580
     atom   12 type  1   force =     0.00000000    0.00000000    0.00958547
     The ionic contribution  to forces
     atom    1 type  1   force =     0.00000000   -0.00000000 -255.31980166
     atom    2 type  1   force =    -0.00000000   -0.00000000  -51.94816341
     atom    3 type  1   force =    -0.00000000    0.00000000  155.91061986
     atom    4 type  1   force =    -0.00000000    0.00000000 -155.91061986
     atom    5 type  1   force =    -0.00000000    0.00000000   51.94816341
     atom    6 type  1   force =    -0.00000000   -0.00000000  255.31980166
     atom    7 type  1   force =     0.00000000   -0.00000000 -155.91061986
     atom    8 type  1   force =     0.00000000    0.00000000   51.94816341
     atom    9 type  1   force =    -0.00000000    0.00000000  255.31980166
     atom   10 type  1   force =     0.00000000    0.00000000 -255.31980166
     atom   11 type  1   force =     0.00000000    0.00000000  -51.94816341
     atom   12 type  1   force =     0.00000000    0.00000000  155.91061986
     The local contribution  to forces
     atom    1 type  1   force =     0.00000000   -0.00000000  255.39195446
     atom    2 type  1   force =    -0.00000000    0.00000000   51.95051696
     atom    3 type  1   force =    -0.00000000   -0.00000000 -155.91148617
     atom    4 type  1   force =    -0.00000000    0.00000000  155.91183525
     atom    5 type  1   force =     0.00000000    0.00000000  -51.94822873
     atom    6 type  1   force =    -0.00000000    0.00000000 -255.39247540
     atom    7 type  1   force =     0.00000000    0.00000000  155.91183525
     atom    8 type  1   force =     0.00000000   -0.00000000  -51.94822873
     atom    9 type  1   force =     0.00000000   -0.00000000 -255.39247540
     atom   10 type  1   force =     0.00000000    0.00000000  255.39189734
     atom   11 type  1   force =     0.00000000    0.00000000   51.95045949
     atom   12 type  1   force =     0.00000000    0.00000000 -155.91150088
     The core correction contribution to forces
     atom    1 type  1   force =    -0.00000000    0.00000000    0.02170187
     atom    2 type  1   force =     0.00000000   -0.00000000   -0.00154077
     atom    3 type  1   force =    -0.00000000   -0.00000000    0.00395932
     atom    4 type  1   force =     0.00000000   -0.00000000   -0.00395828
     atom    5 type  1   force =    -0.00000000   -0.00000000    0.00155282
     atom    6 type  1   force =    -0.00000000    0.00000000   -0.02172172
     atom    7 type  1   force =    -0.00000000    0.00000000   -0.00395828
     atom    8 type  1   force =    -0.00000000   -0.00000000    0.00155282
     atom    9 type  1   force =     0.00000000   -0.00000000   -0.02172172
     atom   10 type  1   force =    -0.00000000   -0.00000000    0.02170742
     atom   11 type  1   force =    -0.00000000   -0.00000000   -0.00154601
     atom   12 type  1   force =    -0.00000000   -0.00000000    0.00395786
     The Hubbard contrib.    to forces
     atom    1 type  1   force =     0.00000000    0.00000000    0.00000000
     atom    2 type  1   force =     0.00000000    0.00000000    0.00000000
     atom    3 type  1   force =     0.00000000    0.00000000    0.00000000
     atom    4 type  1   force =     0.00000000    0.00000000    0.00000000
     atom    5 type  1   force =     0.00000000    0.00000000    0.00000000
     atom    6 type  1   force =     0.00000000    0.00000000    0.00000000
     atom    7 type  1   force =     0.00000000    0.00000000    0.00000000
     atom    8 type  1   force =     0.00000000    0.00000000    0.00000000
     atom    9 type  1   force =     0.00000000    0.00000000    0.00000000
     atom   10 type  1   force =     0.00000000    0.00000000    0.00000000
     atom   11 type  1   force =     0.00000000    0.00000000    0.00000000
     atom   12 type  1   force =     0.00000000    0.00000000    0.00000000
     The SCF correction term to forces
     atom    1 type  1   force =    -0.00000000    0.00000000    0.00111717
     atom    2 type  1   force =     0.00000000    0.00000000   -0.00144733
     atom    3 type  1   force =    -0.00000000    0.00000000   -0.00010618
     atom    4 type  1   force =    -0.00000000   -0.00000000   -0.00018982
     atom    5 type  1   force =    -0.00000000    0.00000000   -0.00084228
     atom    6 type  1   force =    -0.00000000    0.00000000   -0.00052948
     atom    7 type  1   force =    -0.00000000    0.00000000   -0.00018982
     atom    8 type  1   force =     0.00000000   -0.00000000   -0.00084228
     atom    9 type  1   force =    -0.00000000   -0.00000000   -0.00052948
     atom   10 type  1   force =    -0.00000000    0.00000000    0.00114003
     atom   11 type  1   force =    -0.00000000    0.00000000   -0.00140205
     atom   12 type  1   force =     0.00000000    0.00000000   -0.00008103

     Total force =     0.045528     Total SCF correction =     0.002946


     Computing stress (Cartesian axis) and pressure


     negative rho (up, down):  2.113E+00 0.000E+00
          total   stress  (Ry/bohr**3)                   (kbar)     P=      -62.84
  -0.00046542   0.00000000   0.00000000          -68.47        0.00        0.00
   0.00000000  -0.00046542   0.00000000            0.00      -68.47        0.00
   0.00000000   0.00000000  -0.00035070            0.00        0.00      -51.59

     kinetic stress (kbar)  28638.40      0.00      0.00
                                0.00  28638.40      0.00
                                0.00      0.00  28774.30

     local   stress (kbar)-740945.55      0.00      0.00
                                0.00-740945.55      0.00
                                0.00      0.00 763509.65

     nonloc. stress (kbar)   -178.67      0.00      0.00
                                0.00   -178.67      0.00
                                0.00      0.00   -161.73

     hartree stress (kbar) 377941.65      0.00     -0.00
                                0.00 377941.65     -0.00
                               -0.00     -0.00-364431.87

     exc-cor stress (kbar)  21076.15      0.00     -0.00
                                0.00  21076.15      0.00
                               -0.00      0.00  21070.65

     corecor stress (kbar) -29060.89      0.00      0.00
                                0.00 -29060.89     -0.00
                                0.00     -0.00 -29065.26

     ewald   stress (kbar) 342460.44      0.00      0.00
                                0.00 342460.44      0.00
                                0.00      0.00-419747.33

     hubbard stress (kbar)      0.00      0.00      0.00
                                0.00      0.00      0.00
                                0.00      0.00      0.00

     DFT-D   stress (kbar)      0.00      0.00      0.00
                                0.00      0.00      0.00
                                0.00      0.00      0.00

     XDM     stress (kbar)      0.00      0.00      0.00
                                0.00      0.00      0.00
                                0.00      0.00      0.00

     dft-nl  stress (kbar)      0.00      0.00      0.00
                                0.00      0.00      0.00
                                0.00      0.00      0.00

     TS-vdW  stress (kbar)      0.00      0.00      0.00
                                0.00      0.00      0.00
                                0.00      0.00      0.00



     BFGS Geometry Optimization
     Energy error            =      0.0E+00
     Gradient error          =      1.9E-02

     number of scf cycles    =   1
     number of bfgs steps    =   0

     energy   new            =   -2528.0096654350 Ry

     new trust radius        =       0.0189075952 bohr
     new conv_thr            =       0.0000010000 Ry


ATOMIC_POSITIONS (angstrom)
Pt            0.0000000000        0.0000000000        0.0100054685
Pt            0.0000000000        0.0000000000        3.9778236965
Pt            0.0000000000        0.0000000000        7.9601909612
Pt            0.0000000000        1.9883850000        1.9817577802
Pt            0.0000000000        1.9883850000        5.9640671992
Pt            0.0000000000        1.9883850000        9.9319384430
Pt            1.9883850000        0.0000000000        1.9817577802
Pt            1.9883850000        0.0000000000        5.9640671992
Pt            1.9883850000        0.0000000000        9.9319384430
Pt            1.9883850000        1.9883850000        0.0099958454
Pt            1.9883850000        1.9883850000        3.9778093313
Pt            1.9883850000        1.9883850000        7.9601978526



     Writing output data file ./surface.save/
     NEW-OLD atomic charge density approx. for the potential

     negative rho (up, down):  2.112E+00 0.000E+00

     total cpu time spent up to now is       32.1 secs

     Self-consistent Calculation

     iteration #  1     ecut=    30.00 Ry     beta= 0.30
     Davidson diagonalization with overlap
     ethr =  1.00E-06,  avg # of iterations =  6.2

     negative rho (up, down):  2.112E+00 0.000E+00

     total cpu time spent up to now is       35.1 secs

     total energy              =   -2528.00672580 Ry
     estimated scf accuracy    <       0.00974997 Ry

     iteration #  2     ecut=    30.00 Ry     beta= 0.30
     Davidson diagonalization with overlap
     ethr =  5.08E-06,  avg # of iterations =  8.5

     negative rho (up, down):  2.112E+00 0.000E+00

     total cpu time spent up to now is       37.4 secs

     total energy              =   -2527.95579583 Ry
     estimated scf accuracy    <       8.42700330 Ry

     iteration #  3     ecut=    30.00 Ry     beta= 0.30
     Davidson diagonalization with overlap
     ethr =  5.08E-06,  avg # of iterations =  7.2

     negative rho (up, down):  2.112E+00 0.000E+00

     total cpu time spent up to now is       39.4 secs

     total energy              =   -2527.99716936 Ry
     estimated scf accuracy    <       1.67624820 Ry

     iteration #  4     ecut=    30.00 Ry     beta= 0.30
     Davidson diagonalization with overlap
     ethr =  5.08E-06,  avg # of iterations =  4.2

     negative rho (up, down):  2.112E+00 0.000E+00

     total cpu time spent up to now is       40.9 secs

     total energy              =   -2528.01123286 Ry
     estimated scf accuracy    <       0.01097356 Ry

     iteration #  5     ecut=    30.00 Ry     beta= 0.30
     Davidson diagonalization with overlap
     ethr =  5.08E-06,  avg # of iterations =  1.3

     negative rho (up, down):  2.111E+00 0.000E+00

     total cpu time spent up to now is       42.1 secs

     total energy              =   -2528.01141843 Ry
     estimated scf accuracy    <       0.00203489 Ry

     iteration #  6     ecut=    30.00 Ry     beta= 0.30
     Davidson diagonalization with overlap
     ethr =  1.06E-06,  avg # of iterations =  1.7

     negative rho (up, down):  2.112E+00 0.000E+00

     total cpu time spent up to now is       43.4 secs

     total energy              =   -2528.01144168 Ry
     estimated scf accuracy    <       0.00154970 Ry

     iteration #  7     ecut=    30.00 Ry     beta= 0.30
     Davidson diagonalization with overlap
     ethr =  8.07E-07,  avg # of iterations =  1.0

     negative rho (up, down):  2.112E+00 0.000E+00

     total cpu time spent up to now is       44.6 secs

     total energy              =   -2528.01146992 Ry
     estimated scf accuracy    <       0.00236304 Ry

     iteration #  8     ecut=    30.00 Ry     beta= 0.30
     Davidson diagonalization with overlap
     ethr =  8.07E-07,  avg # of iterations =  1.0

     negative rho (up, down):  2.112E+00 0.000E+00

     total cpu time spent up to now is       45.8 secs

     total energy              =   -2528.01147469 Ry
     estimated scf accuracy    <       0.00025180 Ry

     iteration #  9     ecut=    30.00 Ry     beta= 0.30
     Davidson diagonalization with overlap
     ethr =  1.31E-07,  avg # of iterations =  1.0

     negative rho (up, down):  2.112E+00 0.000E+00

     total cpu time spent up to now is       47.0 secs

     total energy              =   -2528.01147335 Ry
     estimated scf accuracy    <       0.00016787 Ry

     iteration # 10     ecut=    30.00 Ry     beta= 0.30
     Davidson diagonalization with overlap
     ethr =  8.74E-08,  avg # of iterations =  1.0

     negative rho (up, down):  2.112E+00 0.000E+00

     total cpu time spent up to now is       48.1 secs

     total energy              =   -2528.01147486 Ry
     estimated scf accuracy    <       0.00000987 Ry

     iteration # 11     ecut=    30.00 Ry     beta= 0.30
     Davidson diagonalization with overlap
     ethr =  5.14E-09,  avg # of iterations =  1.0

     negative rho (up, down):  2.112E+00 0.000E+00

     total cpu time spent up to now is       49.2 secs

     End of self-consistent calculation

          k = 0.0000 0.0000 0.0000 (  6561 PWs)   bands (ev):

   -43.8439 -43.8386 -43.8386 -43.7660 -43.7660 -43.7636 -43.6951 -43.6951
   -43.6622 -43.6620 -43.6525 -43.6525 -43.6492 -43.6446 -43.6444 -43.6176
   -43.6176 -43.5632 -43.5632 -43.5378 -43.5115 -43.5115 -43.4888 -43.4888
   -43.2035 -43.2035 -43.2035 -43.2035 -43.0167 -43.0167 -43.0167 -43.0167
   -42.8989 -42.8986 -42.8728 -42.8728  -0.4348   0.4969   1.7291   2.4473
     2.6078   2.6079   2.9481   2.9576   2.9849   3.0056   3.0056   3.2341
     3.2343   3.3614   3.6502   3.6502   3.9272   4.0966   4.0966   4.5899
     4.6332   4.6332   5.1491   5.4103   5.6255   5.6255   5.9284   5.9284
     6.1611   6.1611   6.5528   6.6001   6.9566   6.9566   7.1763   7.3811
     7.3941   7.3941   7.5532   7.5533   7.5643   7.8568   7.9267   7.9267
     8.0198   8.2227   8.3514   8.3514   8.6294   8.8040   8.8040   8.8237
     8.8237   8.8622   8.8622   8.9956   9.0633   9.3019   9.3019   9.4396
     9.4398   9.4798   9.4800   9.9237   9.9237  10.0061  10.9625  11.7716
    11.7716  13.6240  13.6240  14.3627  15.0588  15.6394  15.6394  16.0731
    16.0732  16.7085  16.7087

     occupation numbers 
     1.0000   1.0000   1.0000   1.0000   1.0000   1.0000   1.0000   1.0000
     1.0000   1.0000   1.0000   1.0000   1.0000   1.0000   1.0000   1.0000
     1.0000   1.0000   1.0000   1.0000   1.0000   1.0000   1.0000   1.0000
     1.0000   1.0000   1.0000   1.0000   1.0000   1.0000   1.0000   1.0000
     1.0000   1.0000   1.0000   1.0000   1.0000   1.0000   1.0000   1.0000
     1.0000   1.0000   1.0000   1.0000   1.0000   1.0000   1.0000   1.0000
     1.0000   1.0000   1.0000   1.0000   1.0000   1.0000   1.0000   1.0000
     1.0000   1.0000   1.0000   1.0000   1.0000   1.0000   1.0000   1.0000
     1.0000   1.0000   1.0000   1.0000   1.0000   1.0000   1.0000   1.0000
     1.0000   1.0000   1.0000   1.0000   1.0000   1.0000   1.0000   1.0000
     1.0000   1.0000   1.0000   1.0000   1.0000   1.0000   1.0000   1.0000
     1.0000   1.0000   1.0000   0.5166   0.0106   0.0000   0.0000   0.0000
     0.0000   0.0000   0.0000   0.0000   0.0000   0.0000   0.0000   0.0000
     0.0000   0.0000   0.0000   0.0000   0.0000   0.0000   0.0000   0.0000
     0.0000   0.0000   0.0000

          k = 0.0000 0.2500 0.0000 (  6485 PWs)   bands (ev):

   -43.8205 -43.8064 -43.8033 -43.7688 -43.7668 -43.7363 -43.7199 -43.6871
   -43.6868 -43.6745 -43.6683 -43.6502 -43.6286 -43.6226 -43.6119 -43.6095
   -43.6042 -43.5930 -43.5894 -43.5507 -43.5385 -43.5348 -43.5130 -43.5074
   -43.1765 -43.1764 -43.1764 -43.1764 -43.0452 -43.0452 -43.0444 -43.0443
   -42.8937 -42.8936 -42.8758 -42.8758   0.3325   1.1940   2.3385   2.8435
     3.0260   3.0882   3.3040   3.3063   3.4214   3.5427   3.5504   3.5922
     3.7746   3.7869   3.8065   3.8867   4.2352   4.3215   4.5347   4.6712
     4.7276   4.7383   4.9750   5.4690   5.5487   5.7466   5.7659   5.7731
     5.8050   5.8926   6.0807   6.1354   6.4847   6.6580   6.8351   6.8803
     6.9151   7.0715   7.2079   7.3019   7.4324   7.5581   7.6490   7.7466
     7.8470   7.8527   8.0090   8.0094   8.0101   8.1188   8.1472   8.3083
     8.4206   8.4349   8.5533   8.5649   8.5901   8.6291   8.7412   8.7529
     9.0190   9.1238   9.1762   9.2785   9.2979  10.2255  10.7019  11.8570
    12.0763  13.1813  13.2261  14.2588  14.3177  15.0395  15.5646  15.5883
    15.6033  17.2968  17.5154

     occupation numbers 
     1.0000   1.0000   1.0000   1.0000   1.0000   1.0000   1.0000   1.0000
     1.0000   1.0000   1.0000   1.0000   1.0000   1.0000   1.0000   1.0000
     1.0000   1.0000   1.0000   1.0000   1.0000   1.0000   1.0000   1.0000
     1.0000   1.0000   1.0000   1.0000   1.0000   1.0000   1.0000   1.0000
     1.0000   1.0000   1.0000   1.0000   1.0000   1.0000   1.0000   1.0000
     1.0000   1.0000   1.0000   1.0000   1.0000   1.0000   1.0000   1.0000
     1.0000   1.0000   1.0000   1.0000   1.0000   1.0000   1.0000   1.0000
     1.0000   1.0000   1.0000   1.0000   1.0000   1.0000   1.0000   1.0000
     1.0000   1.0000   1.0000   1.0000   1.0000   1.0000   1.0000   1.0000
     1.0000   1.0000   1.0000   1.0000   1.0000   1.0000   1.0000   1.0000
     1.0000   1.0000   1.0000   1.0000   1.0000   1.0000   1.0000   1.0000
     1.0000   1.0000   1.0000   1.0000   1.0000   1.0000   1.0000   1.0000
     0.2213   0.0000   0.0000   0.0000   0.0000   0.0000   0.0000   0.0000
     0.0000   0.0000   0.0000   0.0000   0.0000   0.0000   0.0000   0.0000
     0.0000   0.0000   0.0000

          k = 0.0000-0.5000 0.0000 (  6498 PWs)   bands (ev):

   -43.7713 -43.7712 -43.7684 -43.7682 -43.7385 -43.7382 -43.7286 -43.7285
   -43.6649 -43.6648 -43.6608 -43.6606 -43.6369 -43.6368 -43.6074 -43.6072
   -43.6038 -43.6035 -43.5712 -43.5711 -43.5587 -43.5587 -43.5467 -43.5465
   -43.1118 -43.1117 -43.1117 -43.1117 -43.1108 -43.1108 -43.1108 -43.1107
   -42.8838 -42.8837 -42.8837 -42.8837   2.1719   2.1719   2.8523   2.8523
     3.5821   3.5821   3.9019   3.9019   4.0946   4.0946   4.1182   4.1183
     4.3894   4.3895   4.4381   4.4382   4.6148   4.6149   4.7141   4.7142
     4.8307   4.8307   4.8667   4.8668   5.1457   5.1458   5.4807   5.4808
     5.6117   5.6118   5.8781   5.8782   6.6470   6.6470   6.6517   6.6517
     6.7180   6.7180   6.7992   6.7994   6.9314   6.9314   7.0300   7.0301
     7.1446   7.1447   7.2462   7.2463   7.3046   7.3047   7.4673   7.4673
     7.4772   7.4773   7.8617   7.8618   8.2374   8.2374   8.6542   8.6543
     8.7066   8.7066   9.2366   9.2366   9.6655   9.6657  10.8192  10.8192
    12.2148  12.2148  13.9287  13.9287  15.7217  15.7217  16.5432  16.5433
    17.1257  17.1260  17.5761

     occupation numbers 
     1.0000   1.0000   1.0000   1.0000   1.0000   1.0000   1.0000   1.0000
     1.0000   1.0000   1.0000   1.0000   1.0000   1.0000   1.0000   1.0000
     1.0000   1.0000   1.0000   1.0000   1.0000   1.0000   1.0000   1.0000
     1.0000   1.0000   1.0000   1.0000   1.0000   1.0000   1.0000   1.0000
     1.0000   1.0000   1.0000   1.0000   1.0000   1.0000   1.0000   1.0000
     1.0000   1.0000   1.0000   1.0000   1.0000   1.0000   1.0000   1.0000
     1.0000   1.0000   1.0000   1.0000   1.0000   1.0000   1.0000   1.0000
     1.0000   1.0000   1.0000   1.0000   1.0000   1.0000   1.0000   1.0000
     1.0000   1.0000   1.0000   1.0000   1.0000   1.0000   1.0000   1.0000
     1.0000   1.0000   1.0000   1.0000   1.0000   1.0000   1.0000   1.0000
     1.0000   1.0000   1.0000   1.0000   1.0000   1.0000   1.0000   1.0000
     1.0000   1.0000   1.0000   1.0000   1.0000   1.0000   1.0000   1.0000
     1.0000   1.0000   0.0000   0.0000   0.0000   0.0000   0.0000   0.0000
     0.0000   0.0000   0.0000   0.0000   0.0000   0.0000   0.0000   0.0000
     0.0000   0.0000   0.0000

          k = 0.2500 0.2500 0.0000 (  6507 PWs)   bands (ev):

   -43.8243 -43.8242 -43.8072 -43.7968 -43.7695 -43.7693 -43.7374 -43.6783
   -43.6724 -43.6722 -43.6373 -43.6318 -43.6317 -43.6140 -43.6139 -43.6126
   -43.5919 -43.5861 -43.5860 -43.5686 -43.5493 -43.5315 -43.5072 -43.4954
   -43.2088 -43.2088 -43.1185 -43.1185 -43.1046 -43.1046 -43.0099 -43.0099
   -42.8903 -42.8902 -42.8779 -42.8779   0.9753   1.6297   2.4312   3.0463
     3.2030   3.2031   3.3231   3.3231   3.4681   3.5364   3.6536   3.6537
     4.0445   4.1487   4.1487   4.5175   4.6356   4.6356   4.9791   4.9791
     5.0245   5.1600   5.3156   5.5096   5.6921   5.8006   5.8007   5.8435
     5.9006   5.9134   5.9526   5.9526   5.9650   5.9963   6.3217   6.6698
     6.7003   6.7043   6.7518   6.7519   6.9236   6.9236   7.2366   7.2445
     7.2446   7.2800   7.7578   7.8080   7.8806   7.9621   7.9621   7.9720
     8.1035   8.4510   8.4510   8.5794   8.9692   8.9705   9.0048   9.0049
     9.0505   9.1136   9.1137   9.1699  10.7439  11.3056  11.3057  12.0567
    12.0568  12.7464  12.9734  12.9734  14.1702  14.1702  14.4230  15.1717
    15.6120  15.6121  15.7145

     occupation numbers 
     1.0000   1.0000   1.0000   1.0000   1.0000   1.0000   1.0000   1.0000
     1.0000   1.0000   1.0000   1.0000   1.0000   1.0000   1.0000   1.0000
     1.0000   1.0000   1.0000   1.0000   1.0000   1.0000   1.0000   1.0000
     1.0000   1.0000   1.0000   1.0000   1.0000   1.0000   1.0000   1.0000
     1.0000   1.0000   1.0000   1.0000   1.0000   1.0000   1.0000   1.0000
     1.0000   1.0000   1.0000   1.0000   1.0000   1.0000   1.0000   1.0000
     1.0000   1.0000   1.0000   1.0000   1.0000   1.0000   1.0000   1.0000
     1.0000   1.0000   1.0000   1.0000   1.0000   1.0000   1.0000   1.0000
     1.0000   1.0000   1.0000   1.0000   1.0000   1.0000   1.0000   1.0000
     1.0000   1.0000   1.0000   1.0000   1.0000   1.0000   1.0000   1.0000
     1.0000   1.0000   1.0000   1.0000   1.0000   1.0000   1.0000   1.0000
     1.0000   1.0000   1.0000   1.0000   0.8311   0.8192   0.3907   0.3897
     0.0315   0.0000   0.0000   0.0000   0.0000   0.0000   0.0000   0.0000
     0.0000   0.0000   0.0000   0.0000   0.0000   0.0000   0.0000   0.0000
     0.0000   0.0000   0.0000

          k = 0.2500-0.5000 0.0000 (  6468 PWs)   bands (ev):

   -43.8308 -43.8308 -43.8189 -43.8189 -43.7574 -43.7573 -43.7438 -43.7438
   -43.6761 -43.6760 -43.6601 -43.6599 -43.5970 -43.5970 -43.5878 -43.5878
   -43.5657 -43.5656 -43.5597 -43.5597 -43.5357 -43.5356 -43.5289 -43.5289
   -43.1856 -43.1855 -43.1855 -43.1855 -43.0351 -43.0351 -43.0351 -43.0351
   -42.8835 -42.8834 -42.8834 -42.8834   2.4332   2.4332   2.5476   2.5476
     2.8789   2.8789   3.2927   3.2927   3.8751   3.8751   4.1750   4.1750
     4.3924   4.3924   4.7599   4.7600   4.8270   4.8270   5.1531   5.1531
     5.2626   5.2626   5.4299   5.4299   5.5454   5.5455   5.7462   5.7464
     5.8015   5.8015   5.9409   5.9410   6.0678   6.0678   6.2126   6.2126
     6.3848   6.3849   6.5230   6.5230   6.8701   6.8701   6.9781   6.9781
     7.1646   7.1646   7.6123   7.6123   7.9651   7.9651   8.0602   8.0602
     8.5195   8.5196   8.6706   8.6706   8.6764   8.6764   8.7475   8.7475
     8.9817   8.9817   9.0319   9.0320   9.5519   9.5520  10.7608  10.7609
    12.4866  12.4867  13.3135  13.3135  14.1644  14.1644  14.3167  14.3168
    15.6761  15.6761  16.2999

     occupation numbers 
     1.0000   1.0000   1.0000   1.0000   1.0000   1.0000   1.0000   1.0000
     1.0000   1.0000   1.0000   1.0000   1.0000   1.0000   1.0000   1.0000
     1.0000   1.0000   1.0000   1.0000   1.0000   1.0000   1.0000   1.0000
     1.0000   1.0000   1.0000   1.0000   1.0000   1.0000   1.0000   1.0000
     1.0000   1.0000   1.0000   1.0000   1.0000   1.0000   1.0000   1.0000
     1.0000   1.0000   1.0000   1.0000   1.0000   1.0000   1.0000   1.0000
     1.0000   1.0000   1.0000   1.0000   1.0000   1.0000   1.0000   1.0000
     1.0000   1.0000   1.0000   1.0000   1.0000   1.0000   1.0000   1.0000
     1.0000   1.0000   1.0000   1.0000   1.0000   1.0000   1.0000   1.0000
     1.0000   1.0000   1.0000   1.0000   1.0000   1.0000   1.0000   1.0000
     1.0000   1.0000   1.0000   1.0000   1.0000   1.0000   1.0000   1.0000
     1.0000   1.0000   1.0000   1.0000   1.0000   1.0000   1.0000   1.0000
     0.6996   0.6996   0.1120   0.1118   0.0000   0.0000   0.0000   0.0000
     0.0000   0.0000   0.0000   0.0000   0.0000   0.0000   0.0000   0.0000
     0.0000   0.0000   0.0000

          k =-0.5000-0.5000 0.0000 (  6460 PWs)   bands (ev):

   -43.8595 -43.8595 -43.8594 -43.8594 -43.7753 -43.7753 -43.7751 -43.7751
   -43.6655 -43.6654 -43.6654 -43.6651 -43.5802 -43.5802 -43.5802 -43.5800
   -43.5472 -43.5471 -43.5470 -43.5470 -43.5063 -43.5063 -43.5060 -43.5060
   -43.2158 -43.2158 -43.2158 -43.2157 -43.0031 -43.0031 -43.0031 -43.0031
   -42.8832 -42.8831 -42.8831 -42.8831   2.3069   2.3069   2.3069   2.3069
     2.9069   2.9069   2.9069   2.9070   3.8012   3.8012   3.8012   3.8012
     5.1156   5.1156   5.1157   5.1157   5.1891   5.1892   5.1892   5.1893
     5.4366   5.4366   5.4367   5.4367   5.5750   5.5750   5.5750   5.5750
     5.8896   5.8897   5.8897   5.8897   6.0849   6.0850   6.0850   6.0851
     6.7734   6.7734   6.7735   6.7735   6.8768   6.8768   6.8768   6.8768
     7.8991   7.8991   7.8992   7.8992   8.4276   8.4276   8.4276   8.4276
     8.5975   8.5975   8.5975   8.5976   8.9713   8.9713   8.9713   8.9713
     9.7434   9.7434   9.7434   9.7434  10.6080  10.6080  10.6080  10.6080
    10.7920  10.7920  10.7922  10.7922  13.1291  13.1292  13.1292  13.1292
    15.4133  15.4133  15.4133

     occupation numbers 
     1.0000   1.0000   1.0000   1.0000   1.0000   1.0000   1.0000   1.0000
     1.0000   1.0000   1.0000   1.0000   1.0000   1.0000   1.0000   1.0000
     1.0000   1.0000   1.0000   1.0000   1.0000   1.0000   1.0000   1.0000
     1.0000   1.0000   1.0000   1.0000   1.0000   1.0000   1.0000   1.0000
     1.0000   1.0000   1.0000   1.0000   1.0000   1.0000   1.0000   1.0000
     1.0000   1.0000   1.0000   1.0000   1.0000   1.0000   1.0000   1.0000
     1.0000   1.0000   1.0000   1.0000   1.0000   1.0000   1.0000   1.0000
     1.0000   1.0000   1.0000   1.0000   1.0000   1.0000   1.0000   1.0000
     1.0000   1.0000   1.0000   1.0000   1.0000   1.0000   1.0000   1.0000
     1.0000   1.0000   1.0000   1.0000   1.0000   1.0000   1.0000   1.0000
     1.0000   1.0000   1.0000   1.0000   1.0000   1.0000   1.0000   1.0000
     1.0000   1.0000   1.0000   1.0000   0.8121   0.8117   0.8117   0.8114
     0.0000   0.0000   0.0000   0.0000   0.0000   0.0000   0.0000   0.0000
     0.0000   0.0000   0.0000   0.0000   0.0000   0.0000   0.0000   0.0000
     0.0000   0.0000   0.0000

     the Fermi energy is     8.9968 ev

!    total energy              =   -2528.01147435 Ry
     estimated scf accuracy    <       0.00000074 Ry
     smearing contrib. (-TS)   =      -0.00329203 Ry
     internal energy E=F+TS    =   -2528.00818232 Ry

     The total energy is F=E-TS. E is the sum of the following terms:
     one-electron contribution =  -12316.56500804 Ry
     hartree contribution      =    6239.85263920 Ry
     xc contribution           =    -682.15262443 Ry
     ewald contribution        =    4230.85681095 Ry

     convergence has been achieved in  11 iterations

     negative rho (up, down):  2.112E+00 0.000E+00

     Forces acting on atoms (cartesian axes, Ry/au):

     atom    1 type  1   force =     0.00000000    0.00000000    0.01541000
     atom    2 type  1   force =     0.00000000    0.00000000    0.00000610
     atom    3 type  1   force =     0.00000000    0.00000000    0.00759199
     atom    4 type  1   force =     0.00000000    0.00000000   -0.00755735
     atom    5 type  1   force =     0.00000000    0.00000000    0.00003011
     atom    6 type  1   force =     0.00000000    0.00000000   -0.01548268
     atom    7 type  1   force =     0.00000000    0.00000000   -0.00755735
     atom    8 type  1   force =     0.00000000    0.00000000    0.00003011
     atom    9 type  1   force =     0.00000000    0.00000000   -0.01548268
     atom   10 type  1   force =     0.00000000    0.00000000    0.01541682
     atom   11 type  1   force =     0.00000000    0.00000000   -0.00000657
     atom   12 type  1   force =     0.00000000    0.00000000    0.00760149
     The non-local contrib.  to forces
     atom    1 type  1   force =     0.00000000    0.00000000   -0.07686512
     atom    2 type  1   force =     0.00000000    0.00000000    0.00127607
     atom    3 type  1   force =     0.00000000    0.00000000    0.00646149
     atom    4 type  1   force =     0.00000000    0.00000000   -0.00632685
     atom    5 type  1   force =     0.00000000    0.00000000   -0.00109222
     atom    6 type  1   force =     0.00000000    0.00000000    0.07683775
     atom    7 type  1   force =     0.00000000    0.00000000   -0.00632685
     atom    8 type  1   force =     0.00000000    0.00000000   -0.00109222
     atom    9 type  1   force =     0.00000000    0.00000000    0.07683775
     atom   10 type  1   force =     0.00000000    0.00000000   -0.07685524
     atom   11 type  1   force =     0.00000000    0.00000000    0.00127289
     atom   12 type  1   force =     0.00000000    0.00000000    0.00646060
     The ionic contribution  to forces
     atom    1 type  1   force =     0.00000000    0.00000000 -255.78863689
     atom    2 type  1   force =    -0.00000000   -0.00000000  -51.92111345
     atom    3 type  1   force =    -0.00000000    0.00000000  155.72162472
     atom    4 type  1   force =    -0.00000000    0.00000000 -155.72268181
     atom    5 type  1   force =    -0.00000000   -0.00000000   51.92330832
     atom    6 type  1   force =    -0.00000000   -0.00000000  255.78774248
     atom    7 type  1   force =     0.00000000   -0.00000000 -155.72268181
     atom    8 type  1   force =    -0.00000000   -0.00000000   51.92330832
     atom    9 type  1   force =    -0.00000000   -0.00000000  255.78774248
     atom   10 type  1   force =    -0.00000000   -0.00000000 -255.78887153
     atom   11 type  1   force =     0.00000000    0.00000000  -51.92156292
     atom   12 type  1   force =    -0.00000000   -0.00000000  155.72182209
     The local contribution  to forces
     atom    1 type  1   force =     0.00000000    0.00000000  255.85996928
     atom    2 type  1   force =     0.00000000    0.00000000   51.91940822
     atom    3 type  1   force =     0.00000000    0.00000000 -155.72750440
     atom    4 type  1   force =     0.00000000    0.00000000  155.72548061
     atom    5 type  1   force =    -0.00000000    0.00000000  -51.92576937
     atom    6 type  1   force =     0.00000000    0.00000000 -255.85826857
     atom    7 type  1   force =     0.00000000    0.00000000  155.72548061
     atom    8 type  1   force =     0.00000000    0.00000000  -51.92576937
     atom    9 type  1   force =     0.00000000    0.00000000 -255.85826857
     atom   10 type  1   force =     0.00000000    0.00000000  255.86016950
     atom   11 type  1   force =     0.00000000    0.00000000   51.91982230
     atom   12 type  1   force =     0.00000000    0.00000000 -155.72772216
     The core correction contribution to forces
     atom    1 type  1   force =    -0.00000000    0.00000000    0.02224231
     atom    2 type  1   force =     0.00000000   -0.00000000   -0.00125802
     atom    3 type  1   force =     0.00000000   -0.00000000    0.00426587
     atom    4 type  1   force =    -0.00000000   -0.00000000   -0.00425328
     atom    5 type  1   force =    -0.00000000    0.00000000    0.00125671
     atom    6 type  1   force =    -0.00000000    0.00000000   -0.02224266
     atom    7 type  1   force =    -0.00000000   -0.00000000   -0.00425328
     atom    8 type  1   force =     0.00000000   -0.00000000    0.00125671
     atom    9 type  1   force =     0.00000000   -0.00000000   -0.02224266
     atom   10 type  1   force =     0.00000000    0.00000000    0.02224892
     atom   11 type  1   force =    -0.00000000   -0.00000000   -0.00126514
     atom   12 type  1   force =     0.00000000    0.00000000    0.00426404
     The Hubbard contrib.    to forces
     atom    1 type  1   force =     0.00000000    0.00000000    0.00000000
     atom    2 type  1   force =     0.00000000    0.00000000    0.00000000
     atom    3 type  1   force =     0.00000000    0.00000000    0.00000000
     atom    4 type  1   force =     0.00000000    0.00000000    0.00000000
     atom    5 type  1   force =     0.00000000    0.00000000    0.00000000
     atom    6 type  1   force =     0.00000000    0.00000000    0.00000000
     atom    7 type  1   force =     0.00000000    0.00000000    0.00000000
     atom    8 type  1   force =     0.00000000    0.00000000    0.00000000
     atom    9 type  1   force =     0.00000000    0.00000000    0.00000000
     atom   10 type  1   force =     0.00000000    0.00000000    0.00000000
     atom   11 type  1   force =     0.00000000    0.00000000    0.00000000
     atom   12 type  1   force =     0.00000000    0.00000000    0.00000000
     The SCF correction term to forces
     atom    1 type  1   force =    -0.00000000   -0.00000000   -0.00128788
     atom    2 type  1   force =    -0.00000000   -0.00000000    0.00170498
     atom    3 type  1   force =     0.00000000   -0.00000000    0.00275603
     atom    4 type  1   force =     0.00000000   -0.00000000    0.00023570
     atom    5 type  1   force =    -0.00000000   -0.00000000    0.00233838
     atom    6 type  1   force =    -0.00000000    0.00000000    0.00046005
     atom    7 type  1   force =    -0.00000000    0.00000000    0.00023570
     atom    8 type  1   force =     0.00000000    0.00000000    0.00233838
     atom    9 type  1   force =     0.00000000    0.00000000    0.00046005
     atom   10 type  1   force =    -0.00000000    0.00000000   -0.00126312
     atom   11 type  1   force =    -0.00000000   -0.00000000    0.00173802
     atom   12 type  1   force =     0.00000000   -0.00000000    0.00278862

     Total force =     0.034413     Total SCF correction =     0.006002
     SCF correction compared to forces is large: reduce conv_thr to get better values


     Computing stress (Cartesian axis) and pressure


     negative rho (up, down):  2.112E+00 0.000E+00
          total   stress  (Ry/bohr**3)                   (kbar)     P=      -60.75
  -0.00045254   0.00000000   0.00000000          -66.57        0.00        0.00
   0.00000000  -0.00045254   0.00000000            0.00      -66.57        0.00
   0.00000000   0.00000000  -0.00033383            0.00        0.00      -49.11

     kinetic stress (kbar)  28638.20      0.00      0.00
                                0.00  28638.20      0.00
                                0.00      0.00  28776.14

     local   stress (kbar)-742499.15     -0.00     -0.00
                               -0.00-742499.15      0.00
                               -0.00      0.00 765128.44

     nonloc. stress (kbar)   -177.59      0.00      0.00
                                0.00   -177.59      0.00
                                0.00      0.00   -159.37

     hartree stress (kbar) 378704.33     -0.00      0.00
                               -0.00 378704.33      0.00
                                0.00      0.00-365215.80

     exc-cor stress (kbar)  21075.89      0.00      0.00
                                0.00  21075.89      0.00
                                0.00      0.00  21070.45

     corecor stress (kbar) -29060.89     -0.00     -0.00
                               -0.00 -29060.89     -0.00
                               -0.00     -0.00 -29065.33

     ewald   stress (kbar) 343252.64      0.00      0.00
                                0.00 343252.64      0.00
                                0.00      0.00-420583.64

     hubbard stress (kbar)      0.00      0.00      0.00
                                0.00      0.00      0.00
                                0.00      0.00      0.00

     DFT-D   stress (kbar)      0.00      0.00      0.00
                                0.00      0.00      0.00
                                0.00      0.00      0.00

     XDM     stress (kbar)      0.00      0.00      0.00
                                0.00      0.00      0.00
                                0.00      0.00      0.00

     dft-nl  stress (kbar)      0.00      0.00      0.00
                                0.00      0.00      0.00
                                0.00      0.00      0.00

     TS-vdW  stress (kbar)      0.00      0.00      0.00
                                0.00      0.00      0.00
                                0.00      0.00      0.00


     Energy error            =      1.8E-03
     Gradient error          =      1.5E-02

     number of scf cycles    =   2
     number of bfgs steps    =   1

     energy   old            =   -2528.0096654350 Ry
     energy   new            =   -2528.0114743514 Ry

     CASE: energy  _new < energy  _old

     new trust radius        =       0.0207983547 bohr
     new conv_thr            =       0.0000001548 Ry


ATOMIC_POSITIONS (angstrom)
Pt            0.0000000000        0.0000000000        0.0209644457
Pt            0.0000000000        0.0000000000        3.9779018423
Pt            0.0000000000        0.0000000000        7.9657111376
Pt            0.0000000000        1.9883850000        1.9762623311
Pt            0.0000000000        1.9883850000        5.9640107485
Pt            0.0000000000        1.9883850000        9.9209324276
Pt            1.9883850000        0.0000000000        1.9762623311
Pt            1.9883850000        0.0000000000        5.9640107485
Pt            1.9883850000        0.0000000000        9.9209324276
Pt            1.9883850000        1.9883850000        0.0209586870
Pt            1.9883850000        1.9883850000        3.9778780391
Pt            1.9883850000        1.9883850000        7.9657248336



     Writing output data file ./surface.save/
     NEW-OLD atomic charge density approx. for the potential

     negative rho (up, down):  2.115E+00 0.000E+00

     total cpu time spent up to now is       51.6 secs

     Self-consistent Calculation

     iteration #  1     ecut=    30.00 Ry     beta= 0.30
     Davidson diagonalization with overlap
     ethr =  1.00E-06,  avg # of iterations =  6.0

     negative rho (up, down):  2.115E+00 0.000E+00

     total cpu time spent up to now is       54.5 secs

     total energy              =   -2527.99278278 Ry
     estimated scf accuracy    <       0.04020265 Ry

     iteration #  2     ecut=    30.00 Ry     beta= 0.30
     Davidson diagonalization with overlap
     ethr =  2.09E-05,  avg # of iterations =  7.0

     negative rho (up, down):  2.115E+00 0.000E+00

     total cpu time spent up to now is       56.6 secs

     total energy              =   -2527.81910148 Ry
     estimated scf accuracy    <      28.51828128 Ry

     iteration #  3     ecut=    30.00 Ry     beta= 0.30
     Davidson diagonalization with overlap
     ethr =  2.09E-05,  avg # of iterations =  8.5

     negative rho (up, down):  2.115E+00 0.000E+00

     total cpu time spent up to now is       58.7 secs

     total energy              =   -2527.98511014 Ry
     estimated scf accuracy    <       2.41025561 Ry

     iteration #  4     ecut=    30.00 Ry     beta= 0.30
     Davidson diagonalization with overlap
     ethr =  2.09E-05,  avg # of iterations =  3.7

     negative rho (up, down):  2.115E+00 0.000E+00

     total cpu time spent up to now is       60.2 secs

     total energy              =   -2528.01229062 Ry
     estimated scf accuracy    <       0.12415261 Ry

     iteration #  5     ecut=    30.00 Ry     beta= 0.30
     Davidson diagonalization with overlap
     ethr =  2.09E-05,  avg # of iterations =  1.2

     negative rho (up, down):  2.115E+00 0.000E+00

     total cpu time spent up to now is       61.4 secs

     total energy              =   -2528.01273679 Ry
     estimated scf accuracy    <       0.01175848 Ry

     iteration #  6     ecut=    30.00 Ry     beta= 0.30
     Davidson diagonalization with overlap
     ethr =  6.12E-06,  avg # of iterations =  2.7

     negative rho (up, down):  2.115E+00 0.000E+00

     total cpu time spent up to now is       62.8 secs

     total energy              =   -2528.01271745 Ry
     estimated scf accuracy    <       0.00524710 Ry

     iteration #  7     ecut=    30.00 Ry     beta= 0.30
     Davidson diagonalization with overlap
     ethr =  2.73E-06,  avg # of iterations =  1.5

     negative rho (up, down):  2.115E+00 0.000E+00

     total cpu time spent up to now is       64.0 secs

     total energy              =   -2528.01280525 Ry
     estimated scf accuracy    <       0.01443346 Ry

     iteration #  8     ecut=    30.00 Ry     beta= 0.30
     Davidson diagonalization with overlap
     ethr =  2.73E-06,  avg # of iterations =  1.0

     negative rho (up, down):  2.115E+00 0.000E+00

     total cpu time spent up to now is       65.2 secs

     total energy              =   -2528.01282240 Ry
     estimated scf accuracy    <       0.00229622 Ry

     iteration #  9     ecut=    30.00 Ry     beta= 0.30
     Davidson diagonalization with overlap
     ethr =  1.20E-06,  avg # of iterations =  1.0

     negative rho (up, down):  2.115E+00 0.000E+00

     total cpu time spent up to now is       66.4 secs

     total energy              =   -2528.01280858 Ry
     estimated scf accuracy    <       0.00157810 Ry

     iteration # 10     ecut=    30.00 Ry     beta= 0.30
     Davidson diagonalization with overlap
     ethr =  8.22E-07,  avg # of iterations =  1.0

     negative rho (up, down):  2.115E+00 0.000E+00

     total cpu time spent up to now is       67.6 secs

     total energy              =   -2528.01281677 Ry
     estimated scf accuracy    <       0.00000677 Ry

     iteration # 11     ecut=    30.00 Ry     beta= 0.30
     Davidson diagonalization with overlap
     ethr =  3.53E-09,  avg # of iterations =  1.0

     negative rho (up, down):  2.115E+00 0.000E+00

     total cpu time spent up to now is       68.8 secs

     total energy              =   -2528.01281679 Ry
     estimated scf accuracy    <       0.00000168 Ry

     iteration # 12     ecut=    30.00 Ry     beta= 0.30
     Davidson diagonalization with overlap
     ethr =  8.75E-10,  avg # of iterations =  1.0

     negative rho (up, down):  2.115E+00 0.000E+00

     total cpu time spent up to now is       70.0 secs

     total energy              =   -2528.01281683 Ry
     estimated scf accuracy    <       0.00000022 Ry

     iteration # 13     ecut=    30.00 Ry     beta= 0.30
     Davidson diagonalization with overlap
     ethr =  1.16E-10,  avg # of iterations =  1.2

     negative rho (up, down):  2.115E+00 0.000E+00

     total cpu time spent up to now is       71.2 secs

     End of self-consistent calculation

          k = 0.0000 0.0000 0.0000 (  6561 PWs)   bands (ev):

   -43.8411 -43.8337 -43.8337 -43.7711 -43.7703 -43.7703 -43.7045 -43.7045
   -43.6742 -43.6742 -43.6554 -43.6526 -43.6526 -43.6347 -43.6347 -43.6121
   -43.6121 -43.5659 -43.5659 -43.5337 -43.5208 -43.5208 -43.4899 -43.4899
   -43.2262 -43.2262 -43.2260 -43.2260 -43.0398 -43.0398 -43.0396 -43.0396
   -42.9197 -42.9194 -42.8947 -42.8945  -0.4353   0.4714   1.7037   2.4534
     2.6075   2.6076   2.9349   2.9482   2.9606   3.0060   3.0060   3.2137
     3.2137   3.3357   3.6245   3.6245   3.8939   4.0608   4.0610   4.5830
     4.5966   4.5966   5.1506   5.4117   5.6264   5.6264   5.9174   5.9174
     6.1378   6.1378   6.5320   6.6137   6.9241   6.9241   7.1996   7.3877
     7.3978   7.3978   7.5538   7.5539   7.5665   7.8376   7.9172   7.9172
     8.0177   8.1949   8.3536   8.3536   8.6205   8.8028   8.8028   8.8246
     8.8246   8.8638   8.8639   8.9889   9.0595   9.3021   9.3021   9.4482
     9.4482   9.4677   9.4677   9.8990   9.8992  10.0262  10.9807  11.7676
    11.7676  13.6060  13.6060  14.3665  15.0618  15.6362  15.6362  16.0723
    16.0723  16.7029  16.7029

     occupation numbers 
     1.0000   1.0000   1.0000   1.0000   1.0000   1.0000   1.0000   1.0000
     1.0000   1.0000   1.0000   1.0000   1.0000   1.0000   1.0000   1.0000
     1.0000   1.0000   1.0000   1.0000   1.0000   1.0000   1.0000   1.0000
     1.0000   1.0000   1.0000   1.0000   1.0000   1.0000   1.0000   1.0000
     1.0000   1.0000   1.0000   1.0000   1.0000   1.0000   1.0000   1.0000
     1.0000   1.0000   1.0000   1.0000   1.0000   1.0000   1.0000   1.0000
     1.0000   1.0000   1.0000   1.0000   1.0000   1.0000   1.0000   1.0000
     1.0000   1.0000   1.0000   1.0000   1.0000   1.0000   1.0000   1.0000
[...]
     1.0000   1.0000   1.0000   1.0000   1.0000   1.0000   1.0000   1.0000
     1.0000   1.0000   1.0000   1.0000   1.0000   1.0000   1.0000   1.0000
     1.0000   1.0000   1.0000   1.0000   0.8668   0.6947   0.5316   0.5315
     0.0087   0.0001   0.0001   0.0000   0.0000   0.0000   0.0000   0.0000
     0.0000   0.0000   0.0000   0.0000   0.0000   0.0000   0.0000   0.0000
     0.0000   0.0000   0.0000

          k = 0.2500-0.5000 0.0000 (  6468 PWs)   bands (ev):

   -43.8792 -43.8792 -43.8679 -43.8679 -43.8150 -43.8150 -43.8098 -43.8098
   -43.7299 -43.7299 -43.7115 -43.7115 -43.6400 -43.6400 -43.6236 -43.6236
   -43.6032 -43.6032 -43.5936 -43.5936 -43.5849 -43.5849 -43.5787 -43.5786
   -43.2400 -43.2400 -43.2398 -43.2398 -43.0937 -43.0936 -43.0936 -43.0936
   -42.9431 -42.9431 -42.9430 -42.9430   2.3047   2.3047   2.3999   2.3999
     2.7176   2.7176   3.1406   3.1406   3.7165   3.7165   4.0339   4.0339
     4.2597   4.2598   4.6437   4.6437   4.7240   4.7240   5.0261   5.0261
     5.1360   5.1360   5.3213   5.3213   5.4146   5.4146   5.6428   5.6428
     5.7527   5.7527   5.8747   5.8747   6.0486   6.0486   6.2041   6.2041
     6.3069   6.3069   6.4097   6.4097   6.8296   6.8296   6.8827   6.8827
     7.1061   7.1061   7.5391   7.5391   7.9271   7.9272   8.0420   8.0421
     8.5295   8.5295   8.6765   8.6765   8.6964   8.6964   8.7669   8.7669
     8.9871   8.9871   9.0651   9.0651   9.6078   9.6078  10.8534  10.8534
    12.6019  12.6020  13.2751  13.2751  14.1536  14.1536  14.3996  14.3997
    15.7713  15.7713  16.4130

     occupation numbers 
     1.0000   1.0000   1.0000   1.0000   1.0000   1.0000   1.0000   1.0000
     1.0000   1.0000   1.0000   1.0000   1.0000   1.0000   1.0000   1.0000
     1.0000   1.0000   1.0000   1.0000   1.0000   1.0000   1.0000   1.0000
     1.0000   1.0000   1.0000   1.0000   1.0000   1.0000   1.0000   1.0000
     1.0000   1.0000   1.0000   1.0000   1.0000   1.0000   1.0000   1.0000
     1.0000   1.0000   1.0000   1.0000   1.0000   1.0000   1.0000   1.0000
     1.0000   1.0000   1.0000   1.0000   1.0000   1.0000   1.0000   1.0000
     1.0000   1.0000   1.0000   1.0000   1.0000   1.0000   1.0000   1.0000
     1.0000   1.0000   1.0000   1.0000   1.0000   1.0000   1.0000   1.0000
     1.0000   1.0000   1.0000   1.0000   1.0000   1.0000   1.0000   1.0000
     1.0000   1.0000   1.0000   1.0000   1.0000   1.0000   1.0000   1.0000
     1.0000   1.0000   1.0000   1.0000   1.0000   1.0000   1.0000   1.0000
     0.8811   0.8811   0.0638   0.0638   0.0000   0.0000   0.0000   0.0000
     0.0000   0.0000   0.0000   0.0000   0.0000   0.0000   0.0000   0.0000
     0.0000   0.0000   0.0000

          k =-0.5000-0.5000 0.0000 (  6460 PWs)   bands (ev):

   -43.9088 -43.9088 -43.9088 -43.9088 -43.8397 -43.8397 -43.8396 -43.8396
   -43.7174 -43.7174 -43.7174 -43.7174 -43.6052 -43.6052 -43.6052 -43.6052
   -43.5784 -43.5784 -43.5784 -43.5784 -43.5726 -43.5726 -43.5725 -43.5725
   -43.2690 -43.2690 -43.2690 -43.2690 -43.0622 -43.0622 -43.0622 -43.0621
   -42.9426 -42.9426 -42.9426 -42.9425   2.1657   2.1657   2.1657   2.1657
     2.7413   2.7413   2.7413   2.7413   3.6580   3.6580   3.6580   3.6580
     5.0704   5.0704   5.0704   5.0704   5.1414   5.1414   5.1414   5.1414
     5.4076   5.4076   5.4076   5.4077   5.4279   5.4279   5.4279   5.4279
     5.8577   5.8577   5.8577   5.8578   5.8956   5.8957   5.8957   5.8957
     6.6337   6.6338   6.6338   6.6338   6.8023   6.8023   6.8023   6.8024
     7.8597   7.8597   7.8597   7.8597   8.3779   8.3779   8.3779   8.3779
     8.6339   8.6339   8.6339   8.6339   9.0341   9.0341   9.0341   9.0341
     9.7247   9.7247   9.7247   9.7248  10.5818  10.5818  10.5818  10.5818
    10.7506  10.7506  10.7507  10.7507  13.1350  13.1350  13.1350  13.1351
    15.5910  15.5910  15.5910

     occupation numbers 
     1.0000   1.0000   1.0000   1.0000   1.0000   1.0000   1.0000   1.0000
     1.0000   1.0000   1.0000   1.0000   1.0000   1.0000   1.0000   1.0000
     1.0000   1.0000   1.0000   1.0000   1.0000   1.0000   1.0000   1.0000
     1.0000   1.0000   1.0000   1.0000   1.0000   1.0000   1.0000   1.0000
     1.0000   1.0000   1.0000   1.0000   1.0000   1.0000   1.0000   1.0000
     1.0000   1.0000   1.0000   1.0000   1.0000   1.0000   1.0000   1.0000
     1.0000   1.0000   1.0000   1.0000   1.0000   1.0000   1.0000   1.0000
     1.0000   1.0000   1.0000   1.0000   1.0000   1.0000   1.0000   1.0000
     1.0000   1.0000   1.0000   1.0000   1.0000   1.0000   1.0000   1.0000
     1.0000   1.0000   1.0000   1.0000   1.0000   1.0000   1.0000   1.0000
     1.0000   1.0000   1.0000   1.0000   1.0000   1.0000   1.0000   1.0000
     1.0000   1.0000   1.0000   1.0000   0.3275   0.3274   0.3274   0.3274
     0.0000   0.0000   0.0000   0.0000   0.0000   0.0000   0.0000   0.0000
     0.0000   0.0000   0.0000   0.0000   0.0000   0.0000   0.0000   0.0000
     0.0000   0.0000   0.0000

     the Fermi energy is     9.0212 ev

!    total energy              =   -2528.01635968 Ry
     estimated scf accuracy    <          1.0E-09 Ry
     smearing contrib. (-TS)   =      -0.00287459 Ry
     internal energy E=F+TS    =   -2528.01348509 Ry

     The total energy is F=E-TS. E is the sum of the following terms:
     one-electron contribution =  -12828.55672554 Ry
     hartree contribution      =    6495.49973630 Ry
     xc contribution           =    -682.36324182 Ry
     ewald contribution        =    4487.40674597 Ry

     convergence has been achieved in  12 iterations

     negative rho (up, down):  2.117E+00 0.000E+00

     Forces acting on atoms (cartesian axes, Ry/au):

     atom    1 type  1   force =     0.00000000    0.00000000    0.00012219
     atom    2 type  1   force =     0.00000000    0.00000000    0.00015104
     atom    3 type  1   force =     0.00000000    0.00000000    0.00026824
     atom    4 type  1   force =     0.00000000    0.00000000   -0.00026962
     atom    5 type  1   force =     0.00000000    0.00000000   -0.00013593
     atom    6 type  1   force =     0.00000000    0.00000000   -0.00013184
     atom    7 type  1   force =     0.00000000    0.00000000   -0.00026962
     atom    8 type  1   force =     0.00000000    0.00000000   -0.00013593
     atom    9 type  1   force =     0.00000000    0.00000000   -0.00013184
     atom   10 type  1   force =     0.00000000    0.00000000    0.00012685
     atom   11 type  1   force =     0.00000000    0.00000000    0.00014386
     atom   12 type  1   force =     0.00000000    0.00000000    0.00026259
     The non-local contrib.  to forces
     atom    1 type  1   force =     0.00000000    0.00000000   -0.08190589
     atom    2 type  1   force =     0.00000000    0.00000000    0.00158894
     atom    3 type  1   force =     0.00000000    0.00000000    0.00114629
     atom    4 type  1   force =     0.00000000    0.00000000   -0.00114454
     atom    5 type  1   force =     0.00000000    0.00000000   -0.00158201
     atom    6 type  1   force =     0.00000000    0.00000000    0.08190403
     atom    7 type  1   force =     0.00000000    0.00000000   -0.00114454
     atom    8 type  1   force =     0.00000000    0.00000000   -0.00158201
     atom    9 type  1   force =     0.00000000    0.00000000    0.08190403
     atom   10 type  1   force =     0.00000000    0.00000000   -0.08191023
     atom   11 type  1   force =     0.00000000    0.00000000    0.00158432
     atom   12 type  1   force =     0.00000000    0.00000000    0.00113646
     The ionic contribution  to forces
     atom    1 type  1   force =     0.00000000    0.00000000 -261.59674746
     atom    2 type  1   force =    -0.00000000   -0.00000000  -52.77139542
     atom    3 type  1   force =    -0.00000000   -0.00000000  158.71067540
     atom    4 type  1   force =     0.00000000   -0.00000000 -158.71135028
     atom    5 type  1   force =    -0.00000000   -0.00000000   52.77284619
     atom    6 type  1   force =    -0.00000000    0.00000000  261.59567174
     atom    7 type  1   force =     0.00000000   -0.00000000 -158.71135028
     atom    8 type  1   force =    -0.00000000   -0.00000000   52.77284619
     atom    9 type  1   force =     0.00000000   -0.00000000  261.59567174
     atom   10 type  1   force =     0.00000000    0.00000000 -261.59729716
     atom   11 type  1   force =    -0.00000000   -0.00000000  -52.77097230
     atom   12 type  1   force =     0.00000000    0.00000000  158.71140167
     The local contribution  to forces
     atom    1 type  1   force =     0.00000000    0.00000000  261.65498431
     atom    2 type  1   force =     0.00000000    0.00000000   52.77082802
     atom    3 type  1   force =     0.00000000    0.00000000 -158.71613252
     atom    4 type  1   force =     0.00000000    0.00000000  158.71682906
     atom    5 type  1   force =     0.00000000    0.00000000  -52.77223121
     atom    6 type  1   force =     0.00000000   -0.00000000 -261.65393921
     atom    7 type  1   force =     0.00000000    0.00000000  158.71682906
     atom    8 type  1   force =     0.00000000    0.00000000  -52.77223121
     atom    9 type  1   force =    -0.00000000    0.00000000 -261.65393921
     atom   10 type  1   force =     0.00000000    0.00000000  261.65554409
     atom   11 type  1   force =     0.00000000    0.00000000   52.77040018
     atom   12 type  1   force =     0.00000000    0.00000000 -158.71685222
     The core correction contribution to forces
     atom    1 type  1   force =    -0.00000000   -0.00000000    0.02372352
     atom    2 type  1   force =     0.00000000   -0.00000000   -0.00086764
     atom    3 type  1   force =     0.00000000    0.00000000    0.00466223
     atom    4 type  1   force =    -0.00000000   -0.00000000   -0.00466172
     atom    5 type  1   force =    -0.00000000    0.00000000    0.00086720
     atom    6 type  1   force =     0.00000000   -0.00000000   -0.02372413
     atom    7 type  1   force =     0.00000000    0.00000000   -0.00466172
     atom    8 type  1   force =     0.00000000    0.00000000    0.00086720
     atom    9 type  1   force =    -0.00000000    0.00000000   -0.02372413
     atom   10 type  1   force =    -0.00000000   -0.00000000    0.02372281
     atom   11 type  1   force =     0.00000000    0.00000000   -0.00086719
     atom   12 type  1   force =    -0.00000000   -0.00000000    0.00466284
     The Hubbard contrib.    to forces
     atom    1 type  1   force =     0.00000000    0.00000000    0.00000000
     atom    2 type  1   force =     0.00000000    0.00000000    0.00000000
     atom    3 type  1   force =     0.00000000    0.00000000    0.00000000
     atom    4 type  1   force =     0.00000000    0.00000000    0.00000000
     atom    5 type  1   force =     0.00000000    0.00000000    0.00000000
     atom    6 type  1   force =     0.00000000    0.00000000    0.00000000
     atom    7 type  1   force =     0.00000000    0.00000000    0.00000000
     atom    8 type  1   force =     0.00000000    0.00000000    0.00000000
     atom    9 type  1   force =     0.00000000    0.00000000    0.00000000
     atom   10 type  1   force =     0.00000000    0.00000000    0.00000000
     atom   11 type  1   force =     0.00000000    0.00000000    0.00000000
     atom   12 type  1   force =     0.00000000    0.00000000    0.00000000
     The SCF correction term to forces
     atom    1 type  1   force =     0.00000000    0.00000000    0.00006691
     atom    2 type  1   force =     0.00000000   -0.00000000   -0.00000364
     atom    3 type  1   force =    -0.00000000   -0.00000000   -0.00008396
     atom    4 type  1   force =    -0.00000000    0.00000000    0.00005707
     atom    5 type  1   force =    -0.00000000    0.00000000   -0.00003690
     atom    6 type  1   force =    -0.00000000   -0.00000000   -0.00004505
     atom    7 type  1   force =    -0.00000000    0.00000000    0.00005707
     atom    8 type  1   force =     0.00000000   -0.00000000   -0.00003690
     atom    9 type  1   force =    -0.00000000   -0.00000000   -0.00004505
     atom   10 type  1   force =     0.00000000   -0.00000000    0.00006654
     atom   11 type  1   force =     0.00000000    0.00000000   -0.00000194
     atom   12 type  1   force =    -0.00000000   -0.00000000   -0.00008696

     Total force =     0.000658     Total SCF correction =     0.000192
     SCF correction compared to forces is large: reduce conv_thr to get better values


     Computing stress (Cartesian axis) and pressure


     negative rho (up, down):  2.117E+00 0.000E+00
          total   stress  (Ry/bohr**3)                   (kbar)     P=      -38.34
  -0.00031060   0.00000000   0.00000000          -45.69        0.00        0.00
   0.00000000  -0.00031060   0.00000000            0.00      -45.69        0.00
   0.00000000   0.00000000  -0.00016062            0.00        0.00      -23.63

     kinetic stress (kbar)  28646.19      0.00      0.00
                                0.00  28646.19      0.00
                                0.00      0.00  28794.02

     local   stress (kbar)-775341.61      0.00      0.00
                                0.00-775341.61     -0.00
                                0.00     -0.00 798628.58

     nonloc. stress (kbar)   -166.06      0.00      0.00
                                0.00   -166.06      0.00
                                0.00      0.00   -146.34

     hartree stress (kbar) 394979.89      0.00     -0.00
                                0.00 394979.89     -0.00
                               -0.00     -0.00-381698.76

     exc-cor stress (kbar)  21072.60      0.00     -0.00
                                0.00  21072.60      0.00
                               -0.00      0.00  21067.43

     corecor stress (kbar) -29061.11      0.00      0.00
                                0.00 -29061.11      0.00
                                0.00      0.00 -29066.29

     ewald   stress (kbar) 359824.41      0.00      0.00
                                0.00 359824.41      0.00
                                0.00      0.00-437602.28

     hubbard stress (kbar)      0.00      0.00      0.00
                                0.00      0.00      0.00
                                0.00      0.00      0.00

     DFT-D   stress (kbar)      0.00      0.00      0.00
                                0.00      0.00      0.00
                                0.00      0.00      0.00

     XDM     stress (kbar)      0.00      0.00      0.00
                                0.00      0.00      0.00
                                0.00      0.00      0.00

     dft-nl  stress (kbar)      0.00      0.00      0.00
                                0.00      0.00      0.00
                                0.00      0.00      0.00

     TS-vdW  stress (kbar)      0.00      0.00      0.00
                                0.00      0.00      0.00
                                0.00      0.00      0.00


     Energy error            =      8.5E-06
     Gradient error          =      2.7E-04

     bfgs converged in  12 scf cycles and  11 bfgs steps
     (criteria: energy <  1.0E-04 Ry, force <  1.0E-03 Ry/Bohr)

     End of BFGS Geometry Optimization

     Final energy   =   -2528.0163596787 Ry

     File ./surface.bfgs deleted, as requested
Begin final coordinates

ATOMIC_POSITIONS (angstrom)
Pt            0.0000000000        0.0000000000        0.1127428314
Pt            0.0000000000        0.0000000000        3.9913667172
Pt            0.0000000000        0.0000000000        7.9178373112
Pt            0.0000000000        1.9883850000        2.0240856040
Pt            0.0000000000        1.9883850000        5.9505187951
Pt            0.0000000000        1.9883850000        9.8292184963
Pt            1.9883850000        0.0000000000        2.0240856040
Pt            1.9883850000        0.0000000000        5.9505187951
Pt            1.9883850000        0.0000000000        9.8292184963
Pt            1.9883850000        1.9883850000        0.1127185343
Pt            1.9883850000        1.9883850000        3.9913801657
Pt            1.9883850000        1.9883850000        7.9178586496
End final coordinates



     Writing output data file ./surface.save/

     init_run     :      0.91s CPU      0.96s WALL (       1 calls)
     electrons    :    250.73s CPU    259.07s WALL (      12 calls)
     update_pot   :      2.49s CPU      2.52s WALL (      11 calls)
     forces       :      5.68s CPU      5.84s WALL (      12 calls)
     stress       :     19.83s CPU     20.14s WALL (      12 calls)

     Called by init_run:
     wfcinit      :      0.44s CPU      0.46s WALL (       1 calls)
     wfcinit:atom :      0.00s CPU      0.00s WALL (       6 calls)
     wfcinit:wfcr :      0.42s CPU      0.44s WALL (       6 calls)
     potinit      :      0.09s CPU      0.10s WALL (       1 calls)
     hinit0       :      0.19s CPU      0.20s WALL (       1 calls)

     Called by electrons:
     c_bands      :    195.41s CPU    197.86s WALL (     176 calls)
     sum_band     :     37.41s CPU     41.22s WALL (     176 calls)
     v_of_rho     :      4.49s CPU      4.56s WALL (     188 calls)
     v_h          :      0.31s CPU      0.31s WALL (     188 calls)
     v_xc         :      4.71s CPU      4.78s WALL (     212 calls)
     newd         :     13.31s CPU     15.15s WALL (     188 calls)
     mix_rho      :      0.55s CPU      0.56s WALL (     176 calls)

     Called by c_bands:
     init_us_2    :      1.21s CPU      1.24s WALL (    2262 calls)
     cegterg      :    191.03s CPU    193.40s WALL (    1056 calls)

     Called by sum_band:
     sum_band:wei :      0.05s CPU      0.05s WALL (     176 calls)
     sum_band:loo :     21.86s CPU     22.21s WALL (     176 calls)
     sum_band:buf :      0.24s CPU      0.24s WALL (    1056 calls)
     sum_band:ini :      0.45s CPU      0.46s WALL (    1056 calls)
     sum_band:cal :      6.08s CPU      6.13s WALL (    1056 calls)
     sum_band:bec :      0.21s CPU      0.21s WALL (    1056 calls)
     addusdens    :      8.35s CPU     11.73s WALL (     176 calls)
     addusd:skk   :      0.13s CPU      0.14s WALL (     176 calls)
     addusd:dgemm :      3.80s CPU      7.12s WALL (     176 calls)
     addusd:qvan2 :      3.52s CPU      3.54s WALL (     176 calls)

     Called by *egterg:
     cdiaghg      :     43.03s CPU     43.34s WALL (    3677 calls)
     cegterg:over :     20.25s CPU     20.40s WALL (    2687 calls)
     cegterg:upda :      9.52s CPU      9.60s WALL (    2687 calls)
     cegterg:last :     15.97s CPU     16.08s WALL (    1646 calls)
     cdiaghg:chol :      2.41s CPU      2.43s WALL (    3677 calls)
     cdiaghg:inve :      1.85s CPU      1.87s WALL (    3677 calls)
     cdiaghg:para :      5.45s CPU      5.50s WALL (    7354 calls)
     h_psi        :     87.12s CPU     88.74s WALL (    3749 calls)
     s_psi        :      6.73s CPU      6.80s WALL (    3749 calls)
     g_psi        :      0.16s CPU      0.16s WALL (    2687 calls)

     Called by h_psi:
     h_psi:calbec :     16.17s CPU     16.32s WALL (    3749 calls)
     vloc_psi     :     61.98s CPU     63.38s WALL (    3749 calls)
     add_vuspsi   :      8.44s CPU      8.51s WALL (    3749 calls)

     General routines
     calbec       :     24.40s CPU     24.61s WALL (    5165 calls)
     fft          :      3.94s CPU      3.99s WALL (    2731 calls)
     ffts         :      0.18s CPU      0.18s WALL (     364 calls)
     fftw         :     72.98s CPU     74.59s WALL (  677080 calls)
     interpolate  :      0.29s CPU      0.30s WALL (     188 calls)

     Parallel routines
     fft_scatt_xy :      5.28s CPU      5.39s WALL (  680175 calls)
     fft_scatt_yz :     35.98s CPU     36.74s WALL (  680175 calls)

     PWSCF        :   4m40.80s CPU   4m50.27s WALL


   This run was terminated on:   3:59: 9  10Dec2021            

=------------------------------------------------------------------------------=
   JOB DONE.
=------------------------------------------------------------------------------=
