
     Program PWSCF v.6.7MaX starts on  6Dec2021 at 19:20:51 

     This program is part of the open-source Quantum ESPRESSO suite
     for quantum simulation of materials; please cite
         "P. Giannozzi et al., J. Phys.:Condens. Matter 21 395502 (2009);
         "P. Giannozzi et al., J. Phys.:Condens. Matter 29 465901 (2017);
          URL http://www.quantum-espresso.org", 
     in publications or presentations arising from this work. More details at
     http://www.quantum-espresso.org/quote

     Parallel version (MPI), running on    32 processors

     MPI processes distributed on     1 nodes
     R & G space division:  proc/nbgrp/npool/nimage =      32
     Reading input from pt_surface.111.qe.in

     Current dimensions of program PWSCF are:
     Max number of different atomic species (ntypx) = 10
     Max number of k-points (npk) =  40000
     Max angular momentum in pseudopotentials (lmaxx) =  3

     Subspace diagonalization in iterative solution of the eigenvalue problem:
     one sub-group per band group will be used
     scalapack distributed-memory algorithm (size of sub-group:  5*  5 procs)

     Found symmetry operation: I + ( -0.0000  0.3333  0.0000)
     This is a supercell, fractional translations are disabled

     Parallelization info
     --------------------
     sticks:   dense  smooth     PW     G-vecs:    dense   smooth      PW
     Min         163      65     18                19255     4874     684
     Max         165      66     20                19263     4877     692
     Sum        5251    2107    583               616261   156033   22023



     bravais-lattice index     =           14
     lattice parameter (alat)  =      15.9417  a.u.
     unit-cell volume          =    7023.8920 (a.u.)^3
     number of atoms/cell      =           27
     number of atomic types    =            1
     number of electrons       =       432.00
     number of Kohn-Sham states=          259
     kinetic-energy cutoff     =      30.0000  Ry
     charge density cutoff     =     300.0000  Ry
     scf convergence threshold =      1.0E-06
     mixing beta               =       0.3000
     number of iterations used =            8  plain     mixing
     energy convergence thresh.=      1.0E-04
     force convergence thresh. =      1.0E-03
     Exchange-correlation=  SLA  PW   PBX  PBC
                           (   1   4   3   4   0   0   0)
     nstep                     =           50


     celldm(1)=  15.941730  celldm(2)=   1.000000  celldm(3)=   2.001893
     celldm(4)=   0.000000  celldm(5)=   0.000000  celldm(6)=  -0.500000

     crystal axes: (cart. coord. in units of alat)
               a(1) = (   1.000000   0.000000   0.000000 )  
               a(2) = (  -0.500000   0.866025   0.000000 )  
               a(3) = (   0.000000   0.000000   2.001893 )  

     reciprocal axes: (cart. coord. in units 2 pi/alat)
               b(1) = (  1.000000  0.577350 -0.000000 )  
               b(2) = (  0.000000  1.154701  0.000000 )  
               b(3) = (  0.000000 -0.000000  0.499527 )  


     PseudoPot. # 1 for Pt read from file:
     /expanse/lustre/projects/csd622/tpascal/nano110/qe/pseudo/pt_pbe_v1.4.uspp.F.UPF
     MD5 check sum: f09d6de1a584b5a045c4fc126da2d0c4
     Pseudo is Ultrasoft + core correction, Zval = 16.0
     Generated by new atomic code, or converted to UPF format
     Using radial grid of  985 points,  6 beta functions with: 
                l(1) =   0
                l(2) =   0
                l(3) =   1
                l(4) =   1
                l(5) =   2
                l(6) =   2
     Q(r) pseudized with  8 coefficients,  rinner =    1.300   1.300   1.300
                                                       1.300   1.300

     atomic species   valence    mass     pseudopotential
        Pt            16.00   195.08400     Pt( 1.00)

      6 Sym. Ops. (no inversion) found


                                    s                        frac. trans.

      isym =  1     identity                                     

 cryst.   s( 1) = (     1          0          0      )
                  (     0          1          0      )
                  (     0          0          1      )

 cart.    s( 1) = (  1.0000000  0.0000000  0.0000000 )
                  (  0.0000000  1.0000000  0.0000000 )
                  (  0.0000000  0.0000000  1.0000000 )


      isym =  2     120 deg rotation - cryst. axis [0,0,1]       

 cryst.   s( 2) = (     0          1          0      )
                  (    -1         -1          0      )
                  (     0          0          1      )

 cart.    s( 2) = ( -0.5000000 -0.8660254  0.0000000 )
                  (  0.8660254 -0.5000000  0.0000000 )
                  (  0.0000000  0.0000000  1.0000000 )


      isym =  3     120 deg rotation - cryst. axis [0,0,-1]      

 cryst.   s( 3) = (    -1         -1          0      )
                  (     1          0          0      )
                  (     0          0          1      )

 cart.    s( 3) = ( -0.5000000  0.8660254  0.0000000 )
                  ( -0.8660254 -0.5000000  0.0000000 )
                  (  0.0000000  0.0000000  1.0000000 )


      isym =  4     inv. 180 deg rotation - cart. axis [1,0,0]   

 cryst.   s( 4) = (    -1          0          0      )
                  (     1          1          0      )
                  (     0          0          1      )

 cart.    s( 4) = ( -1.0000000  0.0000000  0.0000000 )
                  (  0.0000000  1.0000000  0.0000000 )
                  (  0.0000000  0.0000000  1.0000000 )


      isym =  5     inv. 180 deg rotation - cryst. axis [0,1,0]  

 cryst.   s( 5) = (     1          1          0      )
                  (     0         -1          0      )
                  (     0          0          1      )

 cart.    s( 5) = (  0.5000000  0.8660254  0.0000000 )
                  (  0.8660254 -0.5000000  0.0000000 )
                  (  0.0000000  0.0000000  1.0000000 )


      isym =  6     inv. 180 deg rotation - cryst. axis [1,1,0]  

 cryst.   s( 6) = (     0         -1          0      )
                  (    -1          0          0      )
                  (     0          0          1      )

 cart.    s( 6) = (  0.5000000 -0.8660254  0.0000000 )
                  ( -0.8660254 -0.5000000  0.0000000 )
                  (  0.0000000  0.0000000  1.0000000 )


     point group C_3v (3m)  
     there are  3 classes
     the character table:

       E     2C3   3s_v 
A_1    1.00  1.00  1.00
A_2    1.00  1.00 -1.00
E      2.00 -1.00  0.00

     the symmetry operations in each class and the name of the first element:

     E        1
          identity                                               
     2C3      2    3
          120 deg rotation - cryst. axis [0,0,1]                 
     3s_v     4    5    6
          inv. 180 deg rotation - cart. axis [1,0,0]             

   Cartesian axes

     site n.     atom                  positions (alat units)
         1           Pt  tau(   1) = (  -0.0000002   0.1924503   0.5443316  )
         2           Pt  tau(   2) = (   0.0000000   0.0000000   0.0000000  )
         3           Pt  tau(   3) = (   0.1666669   0.0962250   0.2721654  )
         4           Pt  tau(   4) = (  -0.1666669   0.4811255   0.5443316  )
         5           Pt  tau(   5) = (  -0.1666667   0.2886752   0.0000000  )
         6           Pt  tau(   6) = (   0.0000002   0.3849002   0.2721654  )
         7           Pt  tau(   7) = (  -0.3333336   0.7698007   0.5443316  )
         8           Pt  tau(   8) = (  -0.3333335   0.5773505   0.0000000  )
         9           Pt  tau(   9) = (  -0.1666666   0.6735755   0.2721654  )
        10           Pt  tau(  10) = (   0.3333333   0.1924503   0.5443316  )
        11           Pt  tau(  11) = (   0.3333335   0.0000000   0.0000000  )
        12           Pt  tau(  12) = (   0.5000003   0.0962250   0.2721654  )
        13           Pt  tau(  13) = (   0.1666666   0.4811255   0.5443316  )
        14           Pt  tau(  14) = (   0.1666667   0.2886752   0.0000000  )
        15           Pt  tau(  15) = (   0.3333336   0.3849002   0.2721654  )
        16           Pt  tau(  16) = (  -0.0000002   0.7698007   0.5443316  )
        17           Pt  tau(  17) = (   0.0000000   0.5773505   0.0000000  )
        18           Pt  tau(  18) = (   0.1666669   0.6735755   0.2721654  )
        19           Pt  tau(  19) = (   0.6666667   0.1924503   0.5443316  )
        20           Pt  tau(  20) = (   0.6666669   0.0000000   0.0000000  )
        21           Pt  tau(  21) = (   0.8333338   0.0962250   0.2721654  )
        22           Pt  tau(  22) = (   0.5000000   0.4811255   0.5443316  )
        23           Pt  tau(  23) = (   0.5000002   0.2886752   0.0000000  )
        24           Pt  tau(  24) = (   0.6666671   0.3849002   0.2721654  )
        25           Pt  tau(  25) = (   0.3333333   0.7698007   0.5443316  )
        26           Pt  tau(  26) = (   0.3333335   0.5773505   0.0000000  )
        27           Pt  tau(  27) = (   0.5000003   0.6735755   0.2721654  )

   Crystallographic axes

     site n.     atom                  positions (cryst. coord.)
         1           Pt  tau(   1) = (  0.1111110  0.2222224  0.2719084  )
         2           Pt  tau(   2) = (  0.0000000  0.0000000  0.0000000  )
         3           Pt  tau(   3) = (  0.2222224  0.1111110  0.1359540  )
         4           Pt  tau(   4) = (  0.1111110  0.5555559  0.2719084  )
         5           Pt  tau(   5) = (  0.0000000  0.3333335  0.0000000  )
         6           Pt  tau(   6) = (  0.2222224  0.4444445  0.1359540  )
         7           Pt  tau(   7) = (  0.1111110  0.8888893  0.2719084  )
         8           Pt  tau(   8) = ( -0.0000000  0.6666669  0.0000000  )
         9           Pt  tau(   9) = (  0.2222224  0.7777779  0.1359540  )
        10           Pt  tau(  10) = (  0.4444445  0.2222224  0.2719084  )
        11           Pt  tau(  11) = (  0.3333335  0.0000000  0.0000000  )
        12           Pt  tau(  12) = (  0.5555559  0.1111110  0.1359540  )
        13           Pt  tau(  13) = (  0.4444445  0.5555559  0.2719084  )
        14           Pt  tau(  14) = (  0.3333335  0.3333335  0.0000000  )
        15           Pt  tau(  15) = (  0.5555559  0.4444445  0.1359540  )
        16           Pt  tau(  16) = (  0.4444445  0.8888893  0.2719084  )
        17           Pt  tau(  17) = (  0.3333335  0.6666669  0.0000000  )
        18           Pt  tau(  18) = (  0.5555559  0.7777779  0.1359540  )
        19           Pt  tau(  19) = (  0.7777779  0.2222224  0.2719084  )
        20           Pt  tau(  20) = (  0.6666669  0.0000000  0.0000000  )
        21           Pt  tau(  21) = (  0.8888893  0.1111110  0.1359540  )
        22           Pt  tau(  22) = (  0.7777779  0.5555559  0.2719084  )
        23           Pt  tau(  23) = (  0.6666669  0.3333335  0.0000000  )
        24           Pt  tau(  24) = (  0.8888893  0.4444445  0.1359540  )
        25           Pt  tau(  25) = (  0.7777779  0.8888893  0.2719084  )
        26           Pt  tau(  26) = (  0.6666669  0.6666669  0.0000000  )
        27           Pt  tau(  27) = (  0.8888893  0.7777779  0.1359540  )

     number of k points=     4  Gaussian smearing, width (Ry)=  0.0030
                       cart. coord. in units 2pi/alat
        k(    1) = (   0.0000000   0.0000000   0.0000000), wk =   0.1250000
        k(    2) = (   0.0000000   0.2886751   0.0000000), wk =   0.7500000
        k(    3) = (   0.0000000  -0.5773503   0.0000000), wk =   0.3750000
        k(    4) = (   0.2500000   0.4330127   0.0000000), wk =   0.7500000

                       cryst. coord.
        k(    1) = (   0.0000000   0.0000000   0.0000000), wk =   0.1250000
        k(    2) = (   0.0000000   0.2500000   0.0000000), wk =   0.7500000
        k(    3) = (   0.0000000  -0.5000000   0.0000000), wk =   0.3750000
        k(    4) = (   0.2500000   0.2500000   0.0000000), wk =   0.7500000

     Dense  grid:   616261 G-vectors     FFT dimensions: (  90,  90, 180)

     Smooth grid:   156033 G-vectors     FFT dimensions: (  60,  60, 120)

     Dynamical RAM for                 wfc:       2.41 MB

     Dynamical RAM for     wfc (w. buffer):      12.03 MB

     Dynamical RAM for           str. fact:       0.29 MB

     Dynamical RAM for           local pot:       0.00 MB

     Dynamical RAM for          nlocal pot:       4.52 MB

     Dynamical RAM for                qrad:       1.39 MB

     Dynamical RAM for          rho,v,vnew:       1.99 MB

     Dynamical RAM for               rhoin:       0.66 MB

     Dynamical RAM for            rho*nmix:       4.70 MB

     Dynamical RAM for           G-vectors:       1.14 MB

     Dynamical RAM for          h,s,v(r/c):       0.49 MB

     Dynamical RAM for          <psi|beta>:       1.92 MB

     Dynamical RAM for                 psi:       4.81 MB

     Dynamical RAM for                hpsi:       4.81 MB

     Dynamical RAM for                spsi:       4.81 MB

     Dynamical RAM for      wfcinit/wfcrot:       8.43 MB

     Dynamical RAM for           addusdens:      62.58 MB

     Dynamical RAM for          addusforce:      78.12 MB

     Dynamical RAM for         addusstress:      59.06 MB

     Estimated static dynamical RAM per process >      29.17 MB

     Estimated max dynamical RAM per process >     107.29 MB

     Estimated total dynamical RAM >       3.35 GB

     Initial potential from superposition of free atoms

     starting charge  418.49969, renormalised to  432.00000

     negative rho (up, down):  5.245E+00 0.000E+00
     Starting wfcs are  324 randomized atomic wfcs

     total cpu time spent up to now is        2.3 secs

     Self-consistent Calculation

     iteration #  1     ecut=    30.00 Ry     beta= 0.30
     Davidson diagonalization with overlap
     ethr =  1.00E-02,  avg # of iterations =  8.2

     negative rho (up, down):  4.997E+00 0.000E+00

     total cpu time spent up to now is        8.0 secs

     total energy              =   -5675.78957835 Ry
     estimated scf accuracy    <      49.79143132 Ry

     iteration #  2     ecut=    30.00 Ry     beta= 0.30
     Davidson diagonalization with overlap
     ethr =  1.00E-02,  avg # of iterations =  3.8

     negative rho (up, down):  4.972E+00 0.000E+00

     total cpu time spent up to now is       12.5 secs

     total energy              =   -5679.89039359 Ry
     estimated scf accuracy    <      76.88514339 Ry

     iteration #  3     ecut=    30.00 Ry     beta= 0.30
     Davidson diagonalization with overlap
     ethr =  1.00E-02,  avg # of iterations =  2.0

     negative rho (up, down):  4.932E+00 0.000E+00

     total cpu time spent up to now is       16.0 secs

     total energy              =   -5685.75753010 Ry
     estimated scf accuracy    <      17.02473119 Ry

     iteration #  4     ecut=    30.00 Ry     beta= 0.30
     Davidson diagonalization with overlap
     ethr =  3.94E-03,  avg # of iterations =  1.0

     negative rho (up, down):  4.905E+00 0.000E+00

     total cpu time spent up to now is       18.9 secs

     total energy              =   -5687.26382985 Ry
     estimated scf accuracy    <       6.09362962 Ry

     iteration #  5     ecut=    30.00 Ry     beta= 0.30
     Davidson diagonalization with overlap
     ethr =  1.41E-03,  avg # of iterations =  8.0

     negative rho (up, down):  4.902E+00 0.000E+00

     total cpu time spent up to now is       23.1 secs

     total energy              =   -5687.65172130 Ry
     estimated scf accuracy    <       8.08013654 Ry

     iteration #  6     ecut=    30.00 Ry     beta= 0.30
     Davidson diagonalization with overlap
     ethr =  1.41E-03,  avg # of iterations =  1.8

     negative rho (up, down):  4.877E+00 0.000E+00

     total cpu time spent up to now is       26.2 secs

     total energy              =   -5687.73422344 Ry
     estimated scf accuracy    <       0.95776677 Ry

     iteration #  7     ecut=    30.00 Ry     beta= 0.30
     Davidson diagonalization with overlap
     ethr =  2.22E-04,  avg # of iterations =  4.5

     negative rho (up, down):  4.865E+00 0.000E+00

     total cpu time spent up to now is       29.9 secs

     total energy              =   -5687.78236847 Ry
     estimated scf accuracy    <       0.13752733 Ry

     iteration #  8     ecut=    30.00 Ry     beta= 0.30
     Davidson diagonalization with overlap
     ethr =  3.18E-05,  avg # of iterations = 10.5

     negative rho (up, down):  4.858E+00 0.000E+00

     total cpu time spent up to now is       34.4 secs

     total energy              =   -5687.76422113 Ry
     estimated scf accuracy    <       0.70335388 Ry

     iteration #  9     ecut=    30.00 Ry     beta= 0.30
     Davidson diagonalization with overlap
     ethr =  3.18E-05,  avg # of iterations =  2.0

     negative rho (up, down):  4.855E+00 0.000E+00

     total cpu time spent up to now is       37.8 secs

     total energy              =   -5687.79050261 Ry
     estimated scf accuracy    <       0.01555164 Ry

     iteration # 10     ecut=    30.00 Ry     beta= 0.30
     Davidson diagonalization with overlap
     ethr =  3.60E-06,  avg # of iterations =  8.5

     negative rho (up, down):  4.851E+00 0.000E+00

     total cpu time spent up to now is       42.2 secs

     total energy              =   -5687.79061820 Ry
     estimated scf accuracy    <       0.01484069 Ry

     iteration # 11     ecut=    30.00 Ry     beta= 0.30
     Davidson diagonalization with overlap
     ethr =  3.44E-06,  avg # of iterations =  2.5

     negative rho (up, down):  4.851E+00 0.000E+00

     total cpu time spent up to now is       45.6 secs

     total energy              =   -5687.79061916 Ry
     estimated scf accuracy    <       0.00574705 Ry

     iteration # 12     ecut=    30.00 Ry     beta= 0.30
     Davidson diagonalization with overlap
     ethr =  1.33E-06,  avg # of iterations =  4.0

     negative rho (up, down):  4.850E+00 0.000E+00

     total cpu time spent up to now is       49.2 secs

     total energy              =   -5687.79085202 Ry
     estimated scf accuracy    <       0.00298080 Ry

     iteration # 13     ecut=    30.00 Ry     beta= 0.30
     Davidson diagonalization with overlap
     ethr =  6.90E-07,  avg # of iterations =  2.8

     negative rho (up, down):  4.850E+00 0.000E+00

     total cpu time spent up to now is       52.6 secs

     total energy              =   -5687.79096036 Ry
     estimated scf accuracy    <       0.00193081 Ry

     iteration # 14     ecut=    30.00 Ry     beta= 0.30
     Davidson diagonalization with overlap
     ethr =  4.47E-07,  avg # of iterations =  6.8

     negative rho (up, down):  4.849E+00 0.000E+00

     total cpu time spent up to now is       56.6 secs

     total energy              =   -5687.79112239 Ry
     estimated scf accuracy    <       0.00012946 Ry

     iteration # 15     ecut=    30.00 Ry     beta= 0.30
     Davidson diagonalization with overlap
     ethr =  3.00E-08,  avg # of iterations =  5.2

     negative rho (up, down):  4.850E+00 0.000E+00

     total cpu time spent up to now is       60.4 secs

     total energy              =   -5687.79106753 Ry
     estimated scf accuracy    <       0.00089818 Ry

     iteration # 16     ecut=    30.00 Ry     beta= 0.30
     Davidson diagonalization with overlap
     ethr =  3.00E-08,  avg # of iterations =  2.0

     negative rho (up, down):  4.850E+00 0.000E+00

     total cpu time spent up to now is       63.7 secs

     total energy              =   -5687.79110283 Ry
     estimated scf accuracy    <       0.00096622 Ry

     iteration # 17     ecut=    30.00 Ry     beta= 0.30
     Davidson diagonalization with overlap
     ethr =  3.00E-08,  avg # of iterations =  2.2

     negative rho (up, down):  4.850E+00 0.000E+00

     total cpu time spent up to now is       67.0 secs

     total energy              =   -5687.79112136 Ry
     estimated scf accuracy    <       0.00011828 Ry

     iteration # 18     ecut=    30.00 Ry     beta= 0.30
     Davidson diagonalization with overlap
     ethr =  2.74E-08,  avg # of iterations =  2.0

     negative rho (up, down):  4.850E+00 0.000E+00

     total cpu time spent up to now is       70.5 secs

     total energy              =   -5687.79112753 Ry
     estimated scf accuracy    <       0.00004406 Ry

     iteration # 19     ecut=    30.00 Ry     beta= 0.30
     Davidson diagonalization with overlap
     ethr =  1.02E-08,  avg # of iterations =  1.0

     negative rho (up, down):  4.850E+00 0.000E+00

     total cpu time spent up to now is       73.4 secs

     total energy              =   -5687.79112934 Ry
     estimated scf accuracy    <       0.00000724 Ry

     iteration # 20     ecut=    30.00 Ry     beta= 0.30
     Davidson diagonalization with overlap
     ethr =  1.67E-09,  avg # of iterations =  1.0

     negative rho (up, down):  4.850E+00 0.000E+00

     total cpu time spent up to now is       76.3 secs

     total energy              =   -5687.79112950 Ry
     estimated scf accuracy    <       0.00000375 Ry

     iteration # 21     ecut=    30.00 Ry     beta= 0.30
     Davidson diagonalization with overlap
     ethr =  8.67E-10,  avg # of iterations =  1.0

     negative rho (up, down):  4.850E+00 0.000E+00

     total cpu time spent up to now is       79.2 secs

     total energy              =   -5687.79112953 Ry
     estimated scf accuracy    <       0.00000169 Ry

     iteration # 22     ecut=    30.00 Ry     beta= 0.30
     Davidson diagonalization with overlap
     ethr =  3.92E-10,  avg # of iterations =  1.0

     negative rho (up, down):  4.850E+00 0.000E+00

     total cpu time spent up to now is       82.1 secs

     total energy              =   -5687.79112942 Ry
     estimated scf accuracy    <       0.00000275 Ry

     iteration # 23     ecut=    30.00 Ry     beta= 0.30
     Davidson diagonalization with overlap
     ethr =  3.92E-10,  avg # of iterations =  1.0

     negative rho (up, down):  4.850E+00 0.000E+00

     total cpu time spent up to now is       85.0 secs

     total energy              =   -5687.79112946 Ry
     estimated scf accuracy    <       0.00000265 Ry

     iteration # 24     ecut=    30.00 Ry     beta= 0.30
     Davidson diagonalization with overlap
     ethr =  3.92E-10,  avg # of iterations =  1.0

     negative rho (up, down):  4.850E+00 0.000E+00

     total cpu time spent up to now is       87.8 secs

     End of self-consistent calculation

          k = 0.0000 0.0000 0.0000 ( 19387 PWs)   bands (ev):

   -47.5266 -47.5266 -47.5265 -47.5265 -47.5265 -47.5264 -47.5115 -47.5115
   -47.5115 -47.5115 -47.4870 -47.4533 -47.4533 -47.4533 -47.4532 -47.4532
   -47.4532 -47.4360 -47.4360 -47.3499 -47.3499 -47.3498 -47.3498 -47.3498
   -47.3498 -47.2913 -47.2913 -47.1244 -47.1242 -47.1242 -47.1242 -47.1241
   -47.1241 -47.1103 -47.1103 -47.1102 -47.1101 -47.1100 -47.1100 -47.1100
   -47.1099 -47.1073 -47.1073 -47.1072 -47.1072 -47.0901 -47.0901 -46.9523
   -46.9522 -46.9521 -46.9521 -46.9521 -46.9521 -46.9499 -46.9498 -46.9497
   -46.9497 -46.9497 -46.9496 -46.8949 -46.8949 -46.8937 -46.8937 -46.7512
   -46.7221 -46.7187 -46.7187 -46.7185 -46.7185 -46.7185 -46.7181 -46.7104
   -46.7104 -46.7102 -46.7102 -46.7102 -46.7098 -46.7036 -46.7034 -46.7034
   -46.7032  -3.6290  -1.8652  -1.3967  -1.2097  -1.2097  -1.2097  -1.2096
    -1.2096  -1.2096  -0.4935  -0.4935  -0.4935  -0.4935  -0.4934  -0.4934
    -0.1085  -0.1085  -0.1084  -0.1084  -0.1084  -0.1084   0.3135   0.3135
     0.3135   0.3135   0.3136   0.3136   0.3241   0.3241   0.4359   0.4359
     0.4359   0.4359   1.0015   1.0016   1.0016   1.0016   1.4150   1.4150
     1.4150   1.4151   1.4151   1.4151   1.7869   1.8319   1.8319   1.8320
     1.8320   1.8320   1.8320   1.8543   1.8543   1.9492   1.9492   2.2049
     2.2049   2.2391   2.3999   2.3999   2.4000   2.4000   2.4000   2.4001
     2.4291   2.4291   2.4291   2.4291   2.4360   2.4360   2.4885   2.4885
     2.5271   2.5271   2.5271   2.5271   2.5272   2.5272   2.5337   2.5337
     3.0804   3.0804   3.0805   3.0805   3.0805   3.0805   3.4456   3.4456
     3.4456   3.4457   3.4457   3.4457   3.6615   3.6615   3.6615   3.6615
     3.7929   3.7929   3.7930   3.7930   3.7930   3.7930   3.8587   3.8588
     4.2144   4.2144   4.2145   4.2145   4.2145   4.2146   4.4606   4.4607
     4.4607   4.4607   4.4608   4.4608   4.5393   4.5393   4.5802   4.7010
     4.7011   4.7012   4.7012   4.7012   4.7012   4.8132   4.8133   4.8133
     4.8133   4.8133   4.8133   4.8546   4.8548   4.8548   4.8548   4.9730
     4.9730   5.0573   5.0573   5.0573   5.0574   5.0574   5.0575   5.1979
     5.1979   5.2714   5.2714   5.2714   5.2714   5.2715   5.2715   6.1584
     7.7531   7.7531   7.7531   7.7532   7.7532   7.7532  10.1029  10.1029
    10.2817  10.2818  10.2818  10.2818  10.4891  11.2534  11.2534  11.2534
    11.2534  11.2535  11.2535  11.4379  12.3402  12.3402  12.4095  12.4095
    12.4095  12.4096  12.4384

     occupation numbers 
     1.0000   1.0000   1.0000   1.0000   1.0000   1.0000   1.0000   1.0000
     1.0000   1.0000   1.0000   1.0000   1.0000   1.0000   1.0000   1.0000
     1.0000   1.0000   1.0000   1.0000   1.0000   1.0000   1.0000   1.0000
     1.0000   1.0000   1.0000   1.0000   1.0000   1.0000   1.0000   1.0000
     1.0000   1.0000   1.0000   1.0000   1.0000   1.0000   1.0000   1.0000
     1.0000   1.0000   1.0000   1.0000   1.0000   1.0000   1.0000   1.0000
     1.0000   1.0000   1.0000   1.0000   1.0000   1.0000   1.0000   1.0000
     1.0000   1.0000   1.0000   1.0000   1.0000   1.0000   1.0000   1.0000
     1.0000   1.0000   1.0000   1.0000   1.0000   1.0000   1.0000   1.0000
     1.0000   1.0000   1.0000   1.0000   1.0000   1.0000   1.0000   1.0000
     1.0000   1.0000   1.0000   1.0000   1.0000   1.0000   1.0000   1.0000
     1.0000   1.0000   1.0000   1.0000   1.0000   1.0000   1.0000   1.0000
     1.0000   1.0000   1.0000   1.0000   1.0000   1.0000   1.0000   1.0000
     1.0000   1.0000   1.0000   1.0000   1.0000   1.0000   1.0000   1.0000
     1.0000   1.0000   1.0000   1.0000   1.0000   1.0000   1.0000   1.0000
     1.0000   1.0000   1.0000   1.0000   1.0000   1.0000   1.0000   1.0000
     1.0000   1.0000   1.0000   1.0000   1.0000   1.0000   1.0000   1.0000
     1.0000   1.0000   1.0000   1.0000   1.0000   1.0000   1.0000   1.0000
     1.0000   1.0000   1.0000   1.0000   1.0000   1.0000   1.0000   1.0000
     1.0000   1.0000   1.0000   1.0000   1.0000   1.0000   1.0000   1.0000
     1.0000   1.0000   1.0000   1.0000   1.0000   1.0000   1.0000   1.0000
     1.0000   1.0000   1.0000   1.0000   1.0000   1.0000   1.0000   1.0000
     1.0000   1.0000   1.0000   1.0000   1.0000   1.0000   1.0000   1.0000
     1.0000   1.0000   1.0000   1.0000   1.0000   1.0000   1.0000   1.0000
     1.0000   1.0000   1.0000   1.0000   1.0000   1.0000   1.0000   1.0000
     1.0000   1.0000   1.0000   1.0000   1.0000   1.0000   1.0000   1.0000
     1.0000   1.0000   1.0000   1.0000   1.0000   1.0000   1.0000   1.0000
     1.0000   1.0000   1.0000   1.0000   1.0000   1.0000   1.0000   0.5647
     0.5647   0.0086   0.0086   0.0086   0.0086   0.0085   0.0085   0.0000
     0.0000   0.0000   0.0000   0.0000   0.0000   0.0000   0.0000   0.0000
     0.0000   0.0000   0.0000   0.0000   0.0000   0.0000   0.0000   0.0000
     0.0000   0.0000   0.0000   0.0000   0.0000   0.0000   0.0000   0.0000
     0.0000   0.0000   0.0000

          k = 0.0000 0.2887 0.0000 ( 19482 PWs)   bands (ev):

   -47.5824 -47.5550 -47.5550 -47.5485 -47.5485 -47.4913 -47.4913 -47.4835
   -47.4630 -47.4613 -47.4613 -47.4562 -47.4562 -47.4494 -47.4489 -47.4489
   -47.4484 -47.4382 -47.4382 -47.3698 -47.3698 -47.3640 -47.3501 -47.3501
   -47.3305 -47.3128 -47.2965 -47.1794 -47.1581 -47.1523 -47.1523 -47.1456
   -47.1455 -47.1349 -47.1348 -47.1310 -47.1310 -47.0898 -47.0896 -47.0788
   -47.0787 -47.0590 -47.0590 -47.0534 -47.0534 -47.0483 -47.0410 -46.9709
   -46.9709 -46.9691 -46.9690 -46.9660 -46.9634 -46.9518 -46.9517 -46.9502
   -46.9501 -46.9332 -46.9312 -46.9151 -46.9144 -46.9000 -46.8987 -46.7479
   -46.7280 -46.7214 -46.7213 -46.7211 -46.7151 -46.7144 -46.7143 -46.7138
   -46.7125 -46.7123 -46.7074 -46.7072 -46.7058 -46.7056 -46.7048 -46.7032
   -46.7030  -3.3937  -1.8688  -1.6285  -1.3200  -1.3200  -1.1735  -1.0209
    -0.8923  -0.8923  -0.6731  -0.4784  -0.4427  -0.4427  -0.2785  -0.2784
    -0.2464  -0.0901  -0.0901  -0.0808  -0.0124   0.0625   0.0625   0.0902
     0.0902   0.1360   0.1360   0.2932   0.2932   0.5053   0.5053   0.6597
     0.6597   0.7682   0.8274   0.8275   1.1829   1.1829   1.2194   1.2703
     1.2703   1.3339   1.3380   1.3380   1.5558   1.5558   1.6462   1.7340
     1.7550   1.7550   1.7718   1.8458   1.8458   1.8722   1.9102   2.0208
     2.1205   2.1205   2.1784   2.2072   2.2072   2.2078   2.2078   2.3127
     2.3127   2.3319   2.3551   2.3936   2.4019   2.4487   2.4487   2.5528
     2.5627   2.5628   2.6082   2.6098   2.6099   2.6535   2.7488   2.7552
     2.8042   2.8042   2.8656   2.8656   2.9184   2.9184   3.2194   3.2688
     3.2689   3.4761   3.4762   3.4953   3.4954   3.5145   3.6150   3.6151
     3.6817   3.7463   3.7861   3.7946   3.7946   3.8051   3.8052   3.8417
     3.9016   3.9507   3.9507   3.9852   4.0134   4.2530   4.2530   4.2913
     4.2914   4.4758   4.5379   4.5565   4.6197   4.6199   4.6356   4.6710
     4.6711   4.7040   4.7040   4.7973   4.7973   4.8047   4.9401   4.9712
     4.9713   4.9831   4.9832   5.0790   5.0790   5.1771   5.2044   5.2088
     5.2089   5.2349   5.2466   5.2466   5.2496   5.2496   5.3320   5.3600
     5.4692   5.5295   5.7541   5.7541   6.1667   6.1747   6.1747   6.9289
     7.0770   7.4857   7.4857   8.5282   8.5282   8.7440   8.8217   8.8217
     9.9014  10.0931  10.0932  10.5577  10.5577  10.6490  10.8208  10.8208
    11.3795  11.5159  11.5160  11.6361  11.8887  11.9278  11.9278  12.1642
    12.1642  12.2150  12.5553

     occupation numbers 
     1.0000   1.0000   1.0000   1.0000   1.0000   1.0000   1.0000   1.0000
     1.0000   1.0000   1.0000   1.0000   1.0000   1.0000   1.0000   1.0000
     1.0000   1.0000   1.0000   1.0000   1.0000   1.0000   1.0000   1.0000
     1.0000   1.0000   1.0000   1.0000   1.0000   1.0000   1.0000   1.0000
     1.0000   1.0000   1.0000   1.0000   1.0000   1.0000   1.0000   1.0000
     1.0000   1.0000   1.0000   1.0000   1.0000   1.0000   1.0000   1.0000
     1.0000   1.0000   1.0000   1.0000   1.0000   1.0000   1.0000   1.0000
     1.0000   1.0000   1.0000   1.0000   1.0000   1.0000   1.0000   1.0000
     1.0000   1.0000   1.0000   1.0000   1.0000   1.0000   1.0000   1.0000
     1.0000   1.0000   1.0000   1.0000   1.0000   1.0000   1.0000   1.0000
     1.0000   1.0000   1.0000   1.0000   1.0000   1.0000   1.0000   1.0000
     1.0000   1.0000   1.0000   1.0000   1.0000   1.0000   1.0000   1.0000
     1.0000   1.0000   1.0000   1.0000   1.0000   1.0000   1.0000   1.0000
     1.0000   1.0000   1.0000   1.0000   1.0000   1.0000   1.0000   1.0000
     1.0000   1.0000   1.0000   1.0000   1.0000   1.0000   1.0000   1.0000
     1.0000   1.0000   1.0000   1.0000   1.0000   1.0000   1.0000   1.0000
     1.0000   1.0000   1.0000   1.0000   1.0000   1.0000   1.0000   1.0000
     1.0000   1.0000   1.0000   1.0000   1.0000   1.0000   1.0000   1.0000
     1.0000   1.0000   1.0000   1.0000   1.0000   1.0000   1.0000   1.0000
     1.0000   1.0000   1.0000   1.0000   1.0000   1.0000   1.0000   1.0000
     1.0000   1.0000   1.0000   1.0000   1.0000   1.0000   1.0000   1.0000
     1.0000   1.0000   1.0000   1.0000   1.0000   1.0000   1.0000   1.0000
     1.0000   1.0000   1.0000   1.0000   1.0000   1.0000   1.0000   1.0000
     1.0000   1.0000   1.0000   1.0000   1.0000   1.0000   1.0000   1.0000
     1.0000   1.0000   1.0000   1.0000   1.0000   1.0000   1.0000   1.0000
     1.0000   1.0000   1.0000   1.0000   1.0000   1.0000   1.0000   1.0000
     1.0000   1.0000   1.0000   1.0000   1.0000   0.8123   0.4757   0.4155
     0.4144   0.1319   0.0641   0.0640   0.0519   0.0518   0.0000   0.0000
     0.0000   0.0000   0.0000   0.0000   0.0000   0.0000   0.0000   0.0000
     0.0000   0.0000   0.0000   0.0000   0.0000   0.0000   0.0000   0.0000
     0.0000   0.0000   0.0000   0.0000   0.0000   0.0000   0.0000   0.0000
     0.0000   0.0000   0.0000   0.0000   0.0000   0.0000   0.0000   0.0000
     0.0000   0.0000   0.0000

          k = 0.0000-0.5774 0.0000 ( 19550 PWs)   bands (ev):

   -47.6029 -47.5639 -47.5639 -47.5638 -47.5638 -47.4745 -47.4744 -47.4733
   -47.4733 -47.4573 -47.4573 -47.4474 -47.4435 -47.4435 -47.4434 -47.4434
   -47.4100 -47.4100 -47.4100 -47.4099 -47.3711 -47.3710 -47.3693 -47.3555
   -47.3555 -47.3109 -47.3109 -47.1996 -47.1750 -47.1609 -47.1609 -47.1609
   -47.1609 -47.1429 -47.1429 -47.1429 -47.1428 -47.0723 -47.0722 -47.0622
   -47.0621 -47.0087 -47.0087 -47.0086 -47.0085 -47.0073 -47.0073 -47.0072
   -47.0072 -46.9716 -46.9715 -46.9711 -46.9689 -46.9688 -46.9684 -46.9565
   -46.9563 -46.9554 -46.9553 -46.9141 -46.9140 -46.9125 -46.9124 -46.7391
   -46.7390 -46.7224 -46.7222 -46.7187 -46.7186 -46.7134 -46.7133 -46.7126
   -46.7099 -46.7098 -46.7097 -46.7095 -46.7048 -46.7047 -46.7046 -46.7045
   -46.7024  -2.7398  -2.7397  -1.3290  -1.3290  -1.0185  -1.0131  -1.0130
    -0.7502  -0.5971  -0.5970  -0.3809  -0.3809  -0.3808  -0.3808  -0.2907
    -0.2162  -0.2162  -0.2161  -0.2161  -0.1354  -0.0647  -0.0647   0.0999
     0.0999   0.1000   0.1000   0.4452   0.4452   0.6637   0.6637   0.6684
     0.6684   0.6685   0.6685   1.2095   1.2095   1.2161   1.2161   1.2200
     1.2200   1.2200   1.2201   1.2915   1.4399   1.4400   1.4691   1.4692
     1.6437   1.6775   1.6776   1.6776   1.6776   1.7684   1.7685   1.7910
     1.7911   1.8755   1.8756   2.0224   2.0225   2.0225   2.0225   2.1886
     2.1886   2.3422   2.4174   2.4174   2.4676   2.4677   2.5284   2.5284
     2.5285   2.5285   2.6329   2.6330   2.6845   2.6845   2.7605   2.7606
     2.9653   3.1024   3.1026   3.1199   3.1199   3.1200   3.1200   3.1941
     3.1941   3.3050   3.3051   3.3051   3.3052   3.3590   3.3591   3.5675
     3.5675   3.6090   3.6090   3.6090   3.6091   3.7200   3.7201   3.8529
     3.8530   3.8974   3.9900   4.0619   4.0619   4.2050   4.2050   4.2050
     4.2051   4.3590   4.3590   4.5028   4.5029   4.5806   4.5806   4.5807
     4.5807   4.6562   4.6563   4.8422   4.8423   4.9949   4.9950   5.0482
     5.0974   5.0974   5.0975   5.0975   5.1075   5.1561   5.1561   5.2196
     5.2197   5.3633   5.4436   5.4436   5.4436   5.4437   5.7328   5.7816
     6.1576   6.1576   6.4303   7.2478   7.2478   7.2478   7.2478   7.4310
     7.4310   8.0335   8.0625   8.0625   8.0625   8.0625   8.0773   8.4641
     8.4641  10.0269  10.0269  10.0269  10.0269  10.6941  10.6941  11.0092
    11.1204  11.1204  11.2253  11.4397  11.4397  11.4397  11.4397  12.1446
    12.2264  12.3488  12.3492

     occupation numbers 
     1.0000   1.0000   1.0000   1.0000   1.0000   1.0000   1.0000   1.0000
     1.0000   1.0000   1.0000   1.0000   1.0000   1.0000   1.0000   1.0000
     1.0000   1.0000   1.0000   1.0000   1.0000   1.0000   1.0000   1.0000
     1.0000   1.0000   1.0000   1.0000   1.0000   1.0000   1.0000   1.0000
     1.0000   1.0000   1.0000   1.0000   1.0000   1.0000   1.0000   1.0000
     1.0000   1.0000   1.0000   1.0000   1.0000   1.0000   1.0000   1.0000
     1.0000   1.0000   1.0000   1.0000   1.0000   1.0000   1.0000   1.0000
     1.0000   1.0000   1.0000   1.0000   1.0000   1.0000   1.0000   1.0000
     1.0000   1.0000   1.0000   1.0000   1.0000   1.0000   1.0000   1.0000
     1.0000   1.0000   1.0000   1.0000   1.0000   1.0000   1.0000   1.0000
     1.0000   1.0000   1.0000   1.0000   1.0000   1.0000   1.0000   1.0000
     1.0000   1.0000   1.0000   1.0000   1.0000   1.0000   1.0000   1.0000
     1.0000   1.0000   1.0000   1.0000   1.0000   1.0000   1.0000   1.0000
     1.0000   1.0000   1.0000   1.0000   1.0000   1.0000   1.0000   1.0000
     1.0000   1.0000   1.0000   1.0000   1.0000   1.0000   1.0000   1.0000
     1.0000   1.0000   1.0000   1.0000   1.0000   1.0000   1.0000   1.0000
     1.0000   1.0000   1.0000   1.0000   1.0000   1.0000   1.0000   1.0000
     1.0000   1.0000   1.0000   1.0000   1.0000   1.0000   1.0000   1.0000
     1.0000   1.0000   1.0000   1.0000   1.0000   1.0000   1.0000   1.0000
     1.0000   1.0000   1.0000   1.0000   1.0000   1.0000   1.0000   1.0000
     1.0000   1.0000   1.0000   1.0000   1.0000   1.0000   1.0000   1.0000
     1.0000   1.0000   1.0000   1.0000   1.0000   1.0000   1.0000   1.0000
     1.0000   1.0000   1.0000   1.0000   1.0000   1.0000   1.0000   1.0000
     1.0000   1.0000   1.0000   1.0000   1.0000   1.0000   1.0000   1.0000
     1.0000   1.0000   1.0000   1.0000   1.0000   1.0000   1.0000   1.0000
     1.0000   1.0000   1.0000   1.0000   1.0000   1.0000   1.0000   1.0000
     0.9999   0.9999   0.9999   0.9999   0.9995   0.9467   0.9464   0.2780
     0.2776   0.0000   0.0000   0.0000   0.0000   0.0000   0.0000   0.0000
     0.0000   0.0000   0.0000   0.0000   0.0000   0.0000   0.0000   0.0000
     0.0000   0.0000   0.0000   0.0000   0.0000   0.0000   0.0000   0.0000
     0.0000   0.0000   0.0000   0.0000   0.0000   0.0000   0.0000   0.0000
     0.0000   0.0000   0.0000   0.0000   0.0000   0.0000   0.0000   0.0000
     0.0000   0.0000   0.0000

          k = 0.2500 0.4330 0.0000 ( 19500 PWs)   bands (ev):

   -47.5915 -47.5915 -47.5774 -47.5450 -47.5263 -47.5262 -47.4773 -47.4669
   -47.4669 -47.4487 -47.4486 -47.4461 -47.4460 -47.4422 -47.4418 -47.4292
   -47.4186 -47.4170 -47.4170 -47.3865 -47.3865 -47.3812 -47.3811 -47.3516
   -47.3273 -47.3273 -47.3074 -47.1882 -47.1882 -47.1740 -47.1658 -47.1658
   -47.1548 -47.1428 -47.1266 -47.1244 -47.1242 -47.1097 -47.1096 -47.0278
   -47.0241 -47.0167 -47.0167 -47.0166 -47.0158 -47.0111 -47.0111 -46.9863
   -46.9861 -46.9848 -46.9846 -46.9819 -46.9818 -46.9799 -46.9799 -46.9526
   -46.9507 -46.9296 -46.9295 -46.9284 -46.9284 -46.9104 -46.9094 -46.7418
   -46.7318 -46.7317 -46.7195 -46.7165 -46.7164 -46.7137 -46.7135 -46.7119
   -46.7117 -46.7097 -46.7095 -46.7088 -46.7071 -46.7069 -46.7030 -46.7029
   -46.7024  -2.9459  -2.1553  -2.1552  -1.1918  -0.8399  -0.8399  -0.7631
    -0.6180  -0.6179  -0.5903  -0.5903  -0.5319  -0.5319  -0.3704  -0.2805
    -0.1987  -0.1987  -0.1298  -0.1297  -0.0704  -0.0704  -0.0666   0.0080
     0.0475   0.0858   0.0858   0.2893   0.2894   0.4957   0.5822   0.8453
     0.8453   0.9019   0.9569   0.9569   1.1693   1.1693   1.1945   1.1950
     1.1950   1.2097   1.2897   1.2897   1.3285   1.4503   1.5020   1.5020
     1.6188   1.6719   1.6720   1.6973   1.7375   1.7375   1.8196   1.9003
     2.0162   2.0162   2.0328   2.0329   2.1564   2.1564   2.1836   2.1837
     2.2098   2.2535   2.2792   2.2793   2.3150   2.3629   2.3635   2.4100
     2.4101   2.5554   2.5702   2.5970   2.6780   2.6899   2.6899   2.8212
     2.8213   2.8692   2.8693   2.9411   2.9411   2.9701   3.0902   3.0902
     3.2374   3.3591   3.4549   3.4549   3.5775   3.5961   3.6237   3.6239
     3.6490   3.6490   3.6796   3.6797   3.6806   3.7570   3.7570   3.7617
     3.7743   3.9121   3.9121   3.9337   3.9337   3.9927   4.0263   4.2542
     4.2542   4.4126   4.4127   4.4326   4.5148   4.5915   4.5915   4.7334
     4.7728   4.7728   4.8737   4.8737   4.9006   4.9785   5.0543   5.0543
     5.0547   5.0547   5.0956   5.0983   5.0983   5.0994   5.1884   5.1885
     5.2581   5.2582   5.3138   5.4630   5.4914   5.4915   5.9418   5.9418
     5.9717   6.3610   6.3611   6.6914   6.6915   6.9784   6.9784   7.3212
     7.7586   7.7587   8.0886   8.1774   8.5118   8.5118   8.6510   9.1225
     9.2267   9.2267   9.4258   9.4258   9.7137  10.1175  10.9521  10.9522
    10.9646  10.9935  11.5022  11.5022  11.5834  11.5834  11.6612  12.0317
    12.0487  12.0488  12.5328

     occupation numbers 
     1.0000   1.0000   1.0000   1.0000   1.0000   1.0000   1.0000   1.0000
     1.0000   1.0000   1.0000   1.0000   1.0000   1.0000   1.0000   1.0000
     1.0000   1.0000   1.0000   1.0000   1.0000   1.0000   1.0000   1.0000
     1.0000   1.0000   1.0000   1.0000   1.0000   1.0000   1.0000   1.0000
     1.0000   1.0000   1.0000   1.0000   1.0000   1.0000   1.0000   1.0000
     1.0000   1.0000   1.0000   1.0000   1.0000   1.0000   1.0000   1.0000
     1.0000   1.0000   1.0000   1.0000   1.0000   1.0000   1.0000   1.0000
     1.0000   1.0000   1.0000   1.0000   1.0000   1.0000   1.0000   1.0000
     1.0000   1.0000   1.0000   1.0000   1.0000   1.0000   1.0000   1.0000
     1.0000   1.0000   1.0000   1.0000   1.0000   1.0000   1.0000   1.0000
     1.0000   1.0000   1.0000   1.0000   1.0000   1.0000   1.0000   1.0000
     1.0000   1.0000   1.0000   1.0000   1.0000   1.0000   1.0000   1.0000
     1.0000   1.0000   1.0000   1.0000   1.0000   1.0000   1.0000   1.0000
     1.0000   1.0000   1.0000   1.0000   1.0000   1.0000   1.0000   1.0000
     1.0000   1.0000   1.0000   1.0000   1.0000   1.0000   1.0000   1.0000
     1.0000   1.0000   1.0000   1.0000   1.0000   1.0000   1.0000   1.0000
     1.0000   1.0000   1.0000   1.0000   1.0000   1.0000   1.0000   1.0000
     1.0000   1.0000   1.0000   1.0000   1.0000   1.0000   1.0000   1.0000
     1.0000   1.0000   1.0000   1.0000   1.0000   1.0000   1.0000   1.0000
     1.0000   1.0000   1.0000   1.0000   1.0000   1.0000   1.0000   1.0000
     1.0000   1.0000   1.0000   1.0000   1.0000   1.0000   1.0000   1.0000
     1.0000   1.0000   1.0000   1.0000   1.0000   1.0000   1.0000   1.0000
     1.0000   1.0000   1.0000   1.0000   1.0000   1.0000   1.0000   1.0000
     1.0000   1.0000   1.0000   1.0000   1.0000   1.0000   1.0000   1.0000
     1.0000   1.0000   1.0000   1.0000   1.0000   1.0000   1.0000   1.0000
     1.0000   1.0000   1.0000   1.0000   1.0000   1.0000   1.0000   1.0000
     1.0000   1.0000   0.9999   0.9999   0.9999   0.9998   0.6888   0.6884
     0.0273   0.0272   0.0001   0.0000   0.0000   0.0000   0.0000   0.0000
     0.0000   0.0000   0.0000   0.0000   0.0000   0.0000   0.0000   0.0000
     0.0000   0.0000   0.0000   0.0000   0.0000   0.0000   0.0000   0.0000
     0.0000   0.0000   0.0000   0.0000   0.0000   0.0000   0.0000   0.0000
     0.0000   0.0000   0.0000   0.0000   0.0000   0.0000   0.0000   0.0000
     0.0000   0.0000   0.0000

     the Fermi energy is     5.2027 ev

!    total energy              =   -5687.79112907 Ry
     estimated scf accuracy    <       0.00000076 Ry
     smearing contrib. (-TS)   =      -0.00566315 Ry
     internal energy E=F+TS    =   -5687.78546592 Ry

     The total energy is F=E-TS. E is the sum of the following terms:
     one-electron contribution =  -21531.57010674 Ry
     hartree contribution      =   10891.36173069 Ry
     xc contribution           =   -1534.04377321 Ry
     ewald contribution        =    6486.46668333 Ry

     convergence has been achieved in  24 iterations

     negative rho (up, down):  4.850E+00 0.000E+00

     Forces acting on atoms (cartesian axes, Ry/au):

     atom    1 type  1   force =     0.00000000   -0.00002294    0.00092507
     atom    2 type  1   force =     0.00000000    0.00000000   -0.00093387
     atom    3 type  1   force =     0.00000136    0.00000079    0.00003130
     atom    4 type  1   force =    -0.00002347   -0.00001355    0.00092671
     atom    5 type  1   force =    -0.00000255    0.00003396   -0.00093644
     atom    6 type  1   force =     0.00000000    0.00002571   -0.00002583
     atom    7 type  1   force =    -0.00001986    0.00001147    0.00092507
     atom    8 type  1   force =     0.00002813   -0.00001918   -0.00093644
     atom    9 type  1   force =     0.00002226   -0.00001285   -0.00002583
     atom   10 type  1   force =     0.00000462    0.00000267    0.00093739
     atom   11 type  1   force =     0.00003068   -0.00001477   -0.00093644
     atom   12 type  1   force =     0.00000000    0.00000119    0.00000206
     atom   13 type  1   force =     0.00002347   -0.00001355    0.00092671
     atom   14 type  1   force =     0.00000255    0.00003396   -0.00093644
     atom   15 type  1   force =     0.00000103   -0.00000060    0.00000206
     atom   16 type  1   force =     0.00000000    0.00002710    0.00092671
     atom   17 type  1   force =     0.00000000    0.00000000   -0.00090270
     atom   18 type  1   force =    -0.00002226   -0.00001285   -0.00002583
     atom   19 type  1   force =    -0.00000462    0.00000267    0.00093739
     atom   20 type  1   force =    -0.00003068   -0.00001477   -0.00093644
     atom   21 type  1   force =    -0.00000136    0.00000079    0.00003130
     atom   22 type  1   force =     0.00000000   -0.00000534    0.00093739
     atom   23 type  1   force =     0.00000000   -0.00000000   -0.00093493
     atom   24 type  1   force =    -0.00000103   -0.00000060    0.00000206
     atom   25 type  1   force =     0.00001986    0.00001147    0.00092507
     atom   26 type  1   force =    -0.00002813   -0.00001918   -0.00093644
     atom   27 type  1   force =     0.00000000   -0.00000157    0.00003130
     The non-local contrib.  to forces
     atom    1 type  1   force =     0.00000000   -0.00002515    0.05065648
     atom    2 type  1   force =     0.00000000    0.00000000   -0.05064406
     atom    3 type  1   force =     0.00000594    0.00000343    0.00002904
     atom    4 type  1   force =    -0.00001932   -0.00001116    0.05063204
     atom    5 type  1   force =    -0.00000272    0.00003231   -0.05063512
     atom    6 type  1   force =     0.00000000    0.00001771   -0.00000953
     atom    7 type  1   force =    -0.00002178    0.00001257    0.05065648
     atom    8 type  1   force =     0.00002662   -0.00001851   -0.05063512
     atom    9 type  1   force =     0.00001534   -0.00000886   -0.00000953
     atom   10 type  1   force =     0.00000758    0.00000438    0.05065937
     atom   11 type  1   force =     0.00002934   -0.00001380   -0.05063512
     atom   12 type  1   force =     0.00000000    0.00000359    0.00000935
     atom   13 type  1   force =     0.00001932   -0.00001116    0.05063204
     atom   14 type  1   force =     0.00000272    0.00003231   -0.05063512
     atom   15 type  1   force =     0.00000311   -0.00000180    0.00000935
     atom   16 type  1   force =     0.00000000    0.00002231    0.05063204
     atom   17 type  1   force =     0.00000000   -0.00000000   -0.05066533
     atom   18 type  1   force =    -0.00001534   -0.00000886   -0.00000953
     atom   19 type  1   force =    -0.00000758    0.00000438    0.05065937
     atom   20 type  1   force =    -0.00002934   -0.00001380   -0.05063512
     atom   21 type  1   force =    -0.00000594    0.00000343    0.00002904
     atom   22 type  1   force =     0.00000000   -0.00000876    0.05065937
     atom   23 type  1   force =     0.00000000   -0.00000000   -0.05065960
     atom   24 type  1   force =    -0.00000311   -0.00000180    0.00000935
     atom   25 type  1   force =     0.00002178    0.00001257    0.05065648
     atom   26 type  1   force =    -0.00002662   -0.00001851   -0.05063512
     atom   27 type  1   force =     0.00000000   -0.00000686    0.00002904
     The ionic contribution  to forces
     atom    1 type  1   force =     0.00006289    0.00010456  154.75752754
     atom    2 type  1   force =     0.00004789    0.00008703 -154.75764690
     atom    3 type  1   force =     0.00006243    0.00012201    0.00005989
     atom    4 type  1   force =     0.00006624    0.00002235  154.75752307
     atom    5 type  1   force =     0.00004993    0.00002819 -154.75761493
     atom    6 type  1   force =     0.00006438    0.00003966    0.00008362
     atom    7 type  1   force =     0.00006828   -0.00003649  154.75755504
     atom    8 type  1   force =     0.00005329   -0.00005403 -154.75761940
     atom    9 type  1   force =     0.00006633   -0.00004268    0.00010736
     atom   10 type  1   force =     0.00000541    0.00007371  154.75749693
     atom   11 type  1   force =     0.00001251    0.00007452 -154.75761940
     atom   12 type  1   force =    -0.00002526    0.00007518    0.00007123
     atom   13 type  1   force =     0.00000876   -0.00000850  154.75749247
     atom   14 type  1   force =     0.00001455    0.00001567 -154.75758743
     atom   15 type  1   force =    -0.00002331   -0.00000717    0.00009497
     atom   16 type  1   force =     0.00001080   -0.00006735  154.75752443
     atom   17 type  1   force =     0.00001790   -0.00006654 -154.75759190
     atom   18 type  1   force =    -0.00002136   -0.00008952    0.00011870
     atom   19 type  1   force =    -0.00006404    0.00003748  154.75750637
     atom   20 type  1   force =    -0.00006037    0.00003632 -154.75761493
     atom   21 type  1   force =    -0.00006349    0.00005941    0.00006556
     atom   22 type  1   force =    -0.00006068   -0.00004473  154.75750190
     atom   23 type  1   force =    -0.00005833   -0.00002253 -154.75758296
     atom   24 type  1   force =    -0.00006154   -0.00002294    0.00008929
     atom   25 type  1   force =    -0.00005864   -0.00010358  154.75753387
     atom   26 type  1   force =    -0.00005498   -0.00010474 -154.75758743
     atom   27 type  1   force =    -0.00005959   -0.00010529    0.00011303
     The local contribution  to forces
     atom    1 type  1   force =     0.00026426   -0.00004939 -154.79130687
     atom    2 type  1   force =    -0.00000000   -0.00000000  154.79117686
     atom    3 type  1   force =    -0.00083926   -0.00018233   -0.00082533
     atom    4 type  1   force =     0.00083666   -0.00014764 -154.79093049
     atom    5 type  1   force =     0.00032600   -0.00108258  154.79106041
     atom    6 type  1   force =    -0.00026172   -0.00064369    0.00020114
     atom    7 type  1   force =     0.00063554   -0.00069247 -154.79130688
     atom    8 type  1   force =    -0.00049260    0.00033530  154.79106041
     atom    9 type  1   force =    -0.00067081    0.00006488    0.00020114
     atom   10 type  1   force =    -0.00029883   -0.00047767 -154.79128689
     atom   11 type  1   force =    -0.00110053    0.00025896  154.79106041
     atom   12 type  1   force =    -0.00054095   -0.00031844   -0.00030140
     atom   13 type  1   force =    -0.00030813   -0.00014764 -154.79093049
     atom   14 type  1   force =    -0.00032600   -0.00108258  154.79106041
     atom   15 type  1   force =    -0.00080798    0.00014406   -0.00030140
     atom   16 type  1   force =     0.00026426   -0.00113907 -154.79093049
     atom   17 type  1   force =     0.00000000   -0.00032552  154.79120571
     atom   18 type  1   force =     0.00014736    0.00006488    0.00020113
     atom   19 type  1   force =     0.00026350   -0.00047767 -154.79128689
     atom   20 type  1   force =     0.00053667    0.00025896  154.79106041
     atom   21 type  1   force =    -0.00024264   -0.00018233   -0.00082533
     atom   22 type  1   force =    -0.00001767    0.00000933 -154.79128689
     atom   23 type  1   force =    -0.00028192   -0.00016277  154.79123546
     atom   24 type  1   force =    -0.00027392    0.00014406   -0.00030140
     atom   25 type  1   force =    -0.00010703   -0.00069247 -154.79130687
     atom   26 type  1   force =     0.00049260    0.00033530  154.79106041
     atom   27 type  1   force =    -0.00054095    0.00033436   -0.00082533
     The core correction contribution to forces
     atom    1 type  1   force =    -0.00000959    0.00001559   -0.01626347
     atom    2 type  1   force =    -0.00000000    0.00000000    0.01626505
     atom    3 type  1   force =     0.00001941   -0.00000006    0.00000102
     atom    4 type  1   force =    -0.00000972    0.00001728   -0.01626728
     atom    5 type  1   force =    -0.00000453    0.00000881    0.01626681
     atom    6 type  1   force =     0.00000976    0.00000707   -0.00000150
     atom    7 type  1   force =    -0.00001112    0.00001824   -0.01626347
     atom    8 type  1   force =    -0.00000487    0.00000940    0.01626681
     atom    9 type  1   force =     0.00001035    0.00000604   -0.00000150
     atom   10 type  1   force =    -0.00000013    0.00001100   -0.01626224
     atom   11 type  1   force =     0.00000989   -0.00000048    0.01626681
     atom   12 type  1   force =     0.00002017    0.00000109   -0.00000003
     atom   13 type  1   force =    -0.00000946    0.00001728   -0.01626728
     atom   14 type  1   force =     0.00000453    0.00000881    0.01626681
     atom   15 type  1   force =     0.00002078    0.00000002   -0.00000003
     atom   16 type  1   force =    -0.00000959    0.00001750   -0.01626728
     atom   17 type  1   force =    -0.00000000    0.00001182    0.01625611
     atom   18 type  1   force =     0.00000916    0.00000604   -0.00000150
     atom   19 type  1   force =     0.00000142    0.00001100   -0.01626224
     atom   20 type  1   force =     0.00001058   -0.00000048    0.01626681
     atom   21 type  1   force =     0.00002093   -0.00000006    0.00000102
     atom   22 type  1   force =     0.00000064    0.00001234   -0.01626224
     atom   23 type  1   force =     0.00001023    0.00000591    0.01626042
     atom   24 type  1   force =     0.00001955    0.00000002   -0.00000003
     atom   25 type  1   force =    -0.00000806    0.00001824   -0.01626347
     atom   26 type  1   force =     0.00000487    0.00000940    0.01626681
     atom   27 type  1   force =     0.00002017    0.00000125    0.00000102
     The Hubbard contrib.    to forces
     atom    1 type  1   force =     0.00000000    0.00000000    0.00000000
     atom    2 type  1   force =     0.00000000    0.00000000    0.00000000
     atom    3 type  1   force =     0.00000000    0.00000000    0.00000000
     atom    4 type  1   force =     0.00000000    0.00000000    0.00000000
     atom    5 type  1   force =     0.00000000    0.00000000    0.00000000
     atom    6 type  1   force =     0.00000000    0.00000000    0.00000000
     atom    7 type  1   force =     0.00000000    0.00000000    0.00000000
     atom    8 type  1   force =     0.00000000    0.00000000    0.00000000
     atom    9 type  1   force =     0.00000000    0.00000000    0.00000000
     atom   10 type  1   force =     0.00000000    0.00000000    0.00000000
     atom   11 type  1   force =     0.00000000    0.00000000    0.00000000
     atom   12 type  1   force =     0.00000000    0.00000000    0.00000000
     atom   13 type  1   force =     0.00000000    0.00000000    0.00000000
     atom   14 type  1   force =     0.00000000    0.00000000    0.00000000
     atom   15 type  1   force =     0.00000000    0.00000000    0.00000000
     atom   16 type  1   force =     0.00000000    0.00000000    0.00000000
     atom   17 type  1   force =     0.00000000    0.00000000    0.00000000
     atom   18 type  1   force =     0.00000000    0.00000000    0.00000000
     atom   19 type  1   force =     0.00000000    0.00000000    0.00000000
     atom   20 type  1   force =     0.00000000    0.00000000    0.00000000
     atom   21 type  1   force =     0.00000000    0.00000000    0.00000000
     atom   22 type  1   force =     0.00000000    0.00000000    0.00000000
     atom   23 type  1   force =     0.00000000    0.00000000    0.00000000
     atom   24 type  1   force =     0.00000000    0.00000000    0.00000000
     atom   25 type  1   force =     0.00000000    0.00000000    0.00000000
     atom   26 type  1   force =     0.00000000    0.00000000    0.00000000
     atom   27 type  1   force =     0.00000000    0.00000000    0.00000000
     The SCF correction term to forces
     atom    1 type  1   force =     0.00000003   -0.00051962    0.00030206
     atom    2 type  1   force =     0.00000001    0.00000001   -0.00008288
     atom    3 type  1   force =     0.00020639    0.00011919    0.00074902
     atom    4 type  1   force =    -0.00061220   -0.00035350   -0.00001894
     atom    5 type  1   force =    -0.00015536    0.00080265   -0.00001934
     atom    6 type  1   force =    -0.00000001    0.00041910   -0.00031722
     atom    7 type  1   force =    -0.00044995    0.00025975    0.00030207
     atom    8 type  1   force =     0.00061745   -0.00053592   -0.00001934
     atom    9 type  1   force =     0.00036295   -0.00020958   -0.00031721
     atom   10 type  1   force =     0.00023265    0.00013430    0.00032737
     atom   11 type  1   force =     0.00077280   -0.00026675   -0.00001934
     atom   12 type  1   force =    -0.00000005    0.00026412    0.00021092
     atom   13 type  1   force =     0.00061225   -0.00035351   -0.00001895
     atom   14 type  1   force =     0.00015537    0.00080265   -0.00001934
     atom   15 type  1   force =     0.00022868   -0.00013206    0.00021093
     atom   16 type  1   force =     0.00000002    0.00070690   -0.00001894
     atom   17 type  1   force =     0.00000000   -0.00000005   -0.00010534
     atom   18 type  1   force =    -0.00036298   -0.00020958   -0.00031721
     atom   19 type  1   force =    -0.00023266    0.00013430    0.00032737
     atom   20 type  1   force =    -0.00077285   -0.00026676   -0.00001934
     atom   21 type  1   force =    -0.00020647    0.00011918    0.00074902
     atom   22 type  1   force =    -0.00000001   -0.00026868    0.00032737
     atom   23 type  1   force =    -0.00000004   -0.00000002   -0.00018630
     atom   24 type  1   force =    -0.00022878   -0.00013206    0.00021093
     atom   25 type  1   force =     0.00045000    0.00025974    0.00030207
     atom   26 type  1   force =    -0.00061745   -0.00053593   -0.00001934
     atom   27 type  1   force =    -0.00000005   -0.00023837    0.00074903

     Total force =     0.003952     Total SCF correction =     0.003196
     SCF correction compared to forces is large: reduce conv_thr to get better values


     Computing stress (Cartesian axis) and pressure


     negative rho (up, down):  4.850E+00 0.000E+00
          total   stress  (Ry/bohr**3)                   (kbar)     P=      -61.95
  -0.00057345  -0.00000000   0.00000000          -84.36       -0.00        0.00
   0.00000000  -0.00057345   0.00000000            0.00      -84.36        0.00
   0.00000000   0.00000000  -0.00011638            0.00        0.00      -17.12

     kinetic stress (kbar)  21347.69      0.00      0.00
                                0.00  21347.69     -0.00
                                0.00     -0.00  21753.86

     local   stress (kbar)-427749.28     -0.00     -0.00
                               -0.00-427749.29      0.00
                               -0.00      0.00 445239.92

     nonloc. stress (kbar)   -142.82     -0.00      0.00
                               -0.00   -142.82      0.00
                                0.00      0.00    -91.58

     hartree stress (kbar) 218206.75      0.00     -0.00
                                0.00 218206.75     -0.00
                               -0.00     -0.00-208309.96

     exc-cor stress (kbar)  15806.90      0.00      0.00
                                0.00  15806.90     -0.00
                                0.00     -0.00  15798.60

     corecor stress (kbar) -21783.55     -0.00      0.00
                               -0.00 -21783.55     -0.00
                                0.00     -0.00 -21797.52

     ewald   stress (kbar) 194229.96      0.00      0.00
                                0.00 194229.96     -0.00
                                0.00     -0.00-252610.43

     hubbard stress (kbar)      0.00      0.00      0.00
                                0.00      0.00      0.00
                                0.00      0.00      0.00

     DFT-D   stress (kbar)      0.00      0.00      0.00
                                0.00      0.00      0.00
                                0.00      0.00      0.00

     XDM     stress (kbar)      0.00      0.00      0.00
                                0.00      0.00      0.00
                                0.00      0.00      0.00

     dft-nl  stress (kbar)      0.00      0.00      0.00
                                0.00      0.00      0.00
                                0.00      0.00      0.00

     TS-vdW  stress (kbar)      0.00      0.00      0.00
                                0.00      0.00      0.00
                                0.00      0.00      0.00



     BFGS Geometry Optimization
     Energy error            =      0.0E+00
     Gradient error          =      9.4E-04

     bfgs converged in   1 scf cycles and   0 bfgs steps
     (criteria: energy <  1.0E-04 Ry, force <  1.0E-03 Ry/Bohr)

     End of BFGS Geometry Optimization

     Final energy   =   -5687.7911290701 Ry
Begin final coordinates

ATOMIC_POSITIONS (angstrom)
Pt           -0.0000014060        1.6235103461        4.5919809627
Pt            0.0000000000        0.0000000000        0.0000000000
Pt            1.4060019060        0.8117539554        2.2959870373
Pt           -1.4060019060        4.0587746475        4.5919809627
Pt           -1.4060005000        2.4352643015        0.0000000000
Pt            0.0000014060        3.2470182569        2.2959870373
Pt           -2.8120024060        6.4940389490        4.5919809627
Pt           -2.8120010000        4.8705286029        0.0000000000
Pt           -1.4059990940        5.6822825583        2.2959870373
Pt            2.8119995940        1.6235103461        4.5919809627
Pt            2.8120010000        0.0000000000        0.0000000000
Pt            4.2180029060        0.8117539554        2.2959870373
Pt            1.4059990940        4.0587746475        4.5919809627
Pt            1.4060005000        2.4352643015        0.0000000000
Pt            2.8120024060        3.2470182569        2.2959870373
Pt           -0.0000014060        6.4940389490        4.5919809627
Pt            0.0000000000        4.8705286029        0.0000000000
Pt            1.4060019060        5.6822825583        2.2959870373
Pt            5.6240005940        1.6235103461        4.5919809627
Pt            5.6240020000        0.0000000000        0.0000000000
Pt            7.0300039060        0.8117539554        2.2959870373
Pt            4.2180000940        4.0587746475        4.5919809627
Pt            4.2180015000        2.4352643015        0.0000000000
Pt            5.6240034060        3.2470182569        2.2959870373
Pt            2.8119995940        6.4940389490        4.5919809627
Pt            2.8120010000        4.8705286029        0.0000000000
Pt            4.2180029060        5.6822825583        2.2959870373
End final coordinates



     Writing output data file ./surface.save/

     init_run     :      2.08s CPU      2.15s WALL (       1 calls)
     electrons    :     84.51s CPU     85.90s WALL (       1 calls)
     forces       :      1.12s CPU      1.14s WALL (       1 calls)
     stress       :      5.39s CPU      5.43s WALL (       1 calls)

     Called by init_run:
     wfcinit      :      1.22s CPU      1.24s WALL (       1 calls)
     wfcinit:atom :      0.00s CPU      0.00s WALL (       4 calls)
     wfcinit:wfcr :      1.17s CPU      1.19s WALL (       4 calls)
     potinit      :      0.14s CPU      0.15s WALL (       1 calls)
     hinit0       :      0.24s CPU      0.26s WALL (       1 calls)

     Called by electrons:
     c_bands      :     69.43s CPU     70.00s WALL (      24 calls)
     sum_band     :     11.37s CPU     11.65s WALL (      24 calls)
     v_of_rho     :      1.03s CPU      1.04s WALL (      25 calls)
     v_h          :      0.07s CPU      0.07s WALL (      25 calls)
     v_xc         :      1.03s CPU      1.04s WALL (      27 calls)
     newd         :      2.55s CPU      2.75s WALL (      25 calls)
     mix_rho      :      0.13s CPU      0.13s WALL (      24 calls)

     Called by c_bands:
     init_us_2    :      0.17s CPU      0.18s WALL (     204 calls)
     cegterg      :     67.86s CPU     68.41s WALL (      96 calls)

     Called by sum_band:
     sum_band:wei :      0.01s CPU      0.01s WALL (      24 calls)
     sum_band:loo :      7.83s CPU      7.93s WALL (      24 calls)
     sum_band:buf :      0.04s CPU      0.05s WALL (      96 calls)
     sum_band:ini :      0.08s CPU      0.08s WALL (      96 calls)
     sum_band:cal :      2.69s CPU      2.70s WALL (      96 calls)
     sum_band:bec :      0.11s CPU      0.12s WALL (      96 calls)
     addusdens    :      1.39s CPU      1.55s WALL (      24 calls)
     addusd:skk   :      0.04s CPU      0.04s WALL (      24 calls)
     addusd:dgemm :      0.36s CPU      0.51s WALL (      24 calls)
     addusd:qvan2 :      0.80s CPU      0.81s WALL (      24 calls)

     Called by *egterg:
     cdiaghg      :     14.12s CPU     14.20s WALL (     431 calls)
     cegterg:over :      6.67s CPU      6.71s WALL (     335 calls)
     cegterg:upda :      3.68s CPU      3.70s WALL (     335 calls)
     cegterg:last :      8.39s CPU      8.44s WALL (     161 calls)
     cdiaghg:chol :      0.69s CPU      0.70s WALL (     431 calls)
     cdiaghg:inve :      0.75s CPU      0.75s WALL (     431 calls)
     cdiaghg:para :      1.97s CPU      1.98s WALL (     862 calls)
     h_psi        :     29.24s CPU     29.57s WALL (     435 calls)
     s_psi        :      3.60s CPU      3.62s WALL (     435 calls)
     g_psi        :      0.05s CPU      0.05s WALL (     335 calls)

     Called by h_psi:
     h_psi:calbec :      6.44s CPU      6.48s WALL (     435 calls)
     vloc_psi     :     19.03s CPU     19.30s WALL (     435 calls)
     add_vuspsi   :      3.72s CPU      3.74s WALL (     435 calls)

     General routines
     calbec       :     10.75s CPU     10.81s WALL (     551 calls)
     fft          :      0.83s CPU      0.86s WALL (     348 calls)
     ffts         :      0.03s CPU      0.03s WALL (      49 calls)
     fftw         :     22.20s CPU     22.51s WALL (  131422 calls)
     interpolate  :      0.08s CPU      0.08s WALL (      25 calls)

     Parallel routines
     fft_scatt_xy :      1.81s CPU      1.84s WALL (  131819 calls)
     fft_scatt_yz :     11.85s CPU     12.03s WALL (  131819 calls)

     PWSCF        :   1m33.78s CPU   1m36.59s WALL


   This run was terminated on:  19:22:28   6Dec2021            

=------------------------------------------------------------------------------=
   JOB DONE.
=------------------------------------------------------------------------------=
