
     Program PWSCF v.6.7MaX starts on  5Dec2021 at 22:37:14 

     This program is part of the open-source Quantum ESPRESSO suite
     for quantum simulation of materials; please cite
         "P. Giannozzi et al., J. Phys.:Condens. Matter 21 395502 (2009);
         "P. Giannozzi et al., J. Phys.:Condens. Matter 29 465901 (2017);
          URL http://www.quantum-espresso.org", 
     in publications or presentations arising from this work. More details at
     http://www.quantum-espresso.org/quote

     Parallel version (MPI), running on    32 processors

     MPI processes distributed on     1 nodes
     R & G space division:  proc/nbgrp/npool/nimage =      32
     Reading input from pt_surface.100.qe.in

     Current dimensions of program PWSCF are:
     Max number of different atomic species (ntypx) = 10
     Max number of k-points (npk) =  40000
     Max angular momentum in pseudopotentials (lmaxx) =  3

     Subspace diagonalization in iterative solution of the eigenvalue problem:
     one sub-group per band group will be used
     scalapack distributed-memory algorithm (size of sub-group:  5*  5 procs)

     Found symmetry operation: I + (  0.2500  0.2500  0.0000)
     This is a supercell, fractional translations are disabled

     Parallelization info
     --------------------
     sticks:   dense  smooth     PW     G-vecs:    dense   smooth      PW
     Min         168      67     18                16362     4131     600
     Max         169      68     19                16371     4140     609
     Sum        5393    2161    593               523697   132301   19369



     bravais-lattice index     =            8
     lattice parameter (alat)  =      15.0300  a.u.
     unit-cell volume          =    5966.5648 (a.u.)^3
     number of atoms/cell      =           16
     number of atomic types    =            1
     number of electrons       =       256.00
     number of Kohn-Sham states=          154
     kinetic-energy cutoff     =      30.0000  Ry
     charge density cutoff     =     300.0000  Ry
     scf convergence threshold =      1.0E-06
     mixing beta               =       0.3000
     number of iterations used =            8  plain     mixing
     energy convergence thresh.=      1.0E-04
     force convergence thresh. =      1.0E-03
     Exchange-correlation=  SLA  PW   PBX  PBC
                           (   1   4   3   4   0   0   0)
     nstep                     =           50


     celldm(1)=  15.030012  celldm(2)=   1.000000  celldm(3)=   1.757302
     celldm(4)=   0.000000  celldm(5)=   0.000000  celldm(6)=   0.000000

     crystal axes: (cart. coord. in units of alat)
               a(1) = (   1.000000   0.000000   0.000000 )  
               a(2) = (   0.000000   1.000000   0.000000 )  
               a(3) = (   0.000000   0.000000   1.757302 )  

     reciprocal axes: (cart. coord. in units 2 pi/alat)
               b(1) = (  1.000000  0.000000  0.000000 )  
               b(2) = (  0.000000  1.000000  0.000000 )  
               b(3) = (  0.000000  0.000000  0.569054 )  


     PseudoPot. # 1 for Pt read from file:
     /expanse/lustre/projects/csd622/tpascal/nano110/qe/pseudo/pt_pbe_v1.4.uspp.F.UPF
     MD5 check sum: f09d6de1a584b5a045c4fc126da2d0c4
     Pseudo is Ultrasoft + core correction, Zval = 16.0
     Generated by new atomic code, or converted to UPF format
     Using radial grid of  985 points,  6 beta functions with: 
                l(1) =   0
                l(2) =   0
                l(3) =   1
                l(4) =   1
                l(5) =   2
                l(6) =   2
     Q(r) pseudized with  8 coefficients,  rinner =    1.300   1.300   1.300
                                                       1.300   1.300

     atomic species   valence    mass     pseudopotential
        Pt            16.00   195.08400     Pt( 1.00)

      8 Sym. Ops. (no inversion) found


                                    s                        frac. trans.

      isym =  1     identity                                     

 cryst.   s( 1) = (     1          0          0      )
                  (     0          1          0      )
                  (     0          0          1      )

 cart.    s( 1) = (  1.0000000  0.0000000  0.0000000 )
                  (  0.0000000  1.0000000  0.0000000 )
                  (  0.0000000  0.0000000  1.0000000 )


      isym =  2     180 deg rotation - cart. axis [0,0,1]        

 cryst.   s( 2) = (    -1          0          0      )
                  (     0         -1          0      )
                  (     0          0          1      )

 cart.    s( 2) = ( -1.0000000  0.0000000  0.0000000 )
                  (  0.0000000 -1.0000000  0.0000000 )
                  (  0.0000000  0.0000000  1.0000000 )


      isym =  3      90 deg rotation - cart. axis [0,0,-1]       

 cryst.   s( 3) = (     0         -1          0      )
                  (     1          0          0      )
                  (     0          0          1      )

 cart.    s( 3) = (  0.0000000  1.0000000  0.0000000 )
                  ( -1.0000000  0.0000000  0.0000000 )
                  (  0.0000000  0.0000000  1.0000000 )


      isym =  4      90 deg rotation - cart. axis [0,0,1]        

 cryst.   s( 4) = (     0          1          0      )
                  (    -1          0          0      )
                  (     0          0          1      )

 cart.    s( 4) = (  0.0000000 -1.0000000  0.0000000 )
                  (  1.0000000  0.0000000  0.0000000 )
                  (  0.0000000  0.0000000  1.0000000 )


      isym =  5     inv. 180 deg rotation - cart. axis [0,1,0]   

 cryst.   s( 5) = (     1          0          0      )
                  (     0         -1          0      )
                  (     0          0          1      )

 cart.    s( 5) = (  1.0000000  0.0000000  0.0000000 )
                  (  0.0000000 -1.0000000  0.0000000 )
                  (  0.0000000  0.0000000  1.0000000 )


      isym =  6     inv. 180 deg rotation - cart. axis [1,0,0]   

 cryst.   s( 6) = (    -1          0          0      )
                  (     0          1          0      )
                  (     0          0          1      )

 cart.    s( 6) = ( -1.0000000  0.0000000  0.0000000 )
                  (  0.0000000  1.0000000  0.0000000 )
                  (  0.0000000  0.0000000  1.0000000 )


      isym =  7     inv. 180 deg rotation - cart. axis [1,1,0]   

 cryst.   s( 7) = (     0         -1          0      )
                  (    -1          0          0      )
                  (     0          0          1      )

 cart.    s( 7) = (  0.0000000 -1.0000000  0.0000000 )
                  ( -1.0000000  0.0000000  0.0000000 )
                  (  0.0000000  0.0000000  1.0000000 )


      isym =  8     inv. 180 deg rotation - cart. axis [1,-1,0]  

 cryst.   s( 8) = (     0          1          0      )
                  (     1          0          0      )
                  (     0          0          1      )

 cart.    s( 8) = (  0.0000000  1.0000000  0.0000000 )
                  (  1.0000000  0.0000000  0.0000000 )
                  (  0.0000000  0.0000000  1.0000000 )


     point group C_4v (4mm) 
     there are  5 classes
     the character table:

       E     2C4   C2    2s_v  2s_d 
A_1    1.00  1.00  1.00  1.00  1.00
A_2    1.00  1.00  1.00 -1.00 -1.00
B_1    1.00 -1.00  1.00  1.00 -1.00
B_2    1.00 -1.00  1.00 -1.00  1.00
E      2.00  0.00 -2.00  0.00  0.00

     the symmetry operations in each class and the name of the first element:

     E        1
          identity                                               
     2C4      3    4
           90 deg rotation - cart. axis [0,0,-1]                 
     C2       2
          180 deg rotation - cart. axis [0,0,1]                  
     2s_v     5    6
          inv. 180 deg rotation - cart. axis [0,1,0]             
     2s_d     7    8
          inv. 180 deg rotation - cart. axis [1,1,0]             

   Cartesian axes

     site n.     atom                  positions (alat units)
         1           Pt  tau(   1) = (   0.0000000   0.0000000   0.0000000  )
         2           Pt  tau(   2) = (   0.5000000   0.2500000   0.2500000  )
         3           Pt  tau(   3) = (   0.2500000   0.0000000   0.2500000  )
         4           Pt  tau(   4) = (   0.2500000   0.2500000   0.0000000  )
         5           Pt  tau(   5) = (   0.0000000   0.5000000   0.0000000  )
         6           Pt  tau(   6) = (   0.5000000   0.7500000   0.2500000  )
         7           Pt  tau(   7) = (   0.2500000   0.5000000   0.2500000  )
         8           Pt  tau(   8) = (   0.2500000   0.7500000   0.0000000  )
         9           Pt  tau(   9) = (   0.5000000   0.0000000   0.0000000  )
        10           Pt  tau(  10) = (   1.0000000   0.2500000   0.2500000  )
        11           Pt  tau(  11) = (   0.7500000   0.0000000   0.2500000  )
        12           Pt  tau(  12) = (   0.7500000   0.2500000   0.0000000  )
        13           Pt  tau(  13) = (   0.5000000   0.5000000   0.0000000  )
        14           Pt  tau(  14) = (   1.0000000   0.7500000   0.2500000  )
        15           Pt  tau(  15) = (   0.7500000   0.5000000   0.2500000  )
        16           Pt  tau(  16) = (   0.7500000   0.7500000   0.0000000  )

   Crystallographic axes

     site n.     atom                  positions (cryst. coord.)
         1           Pt  tau(   1) = (  0.0000000  0.0000000  0.0000000  )
         2           Pt  tau(   2) = (  0.5000000  0.2500000  0.1422636  )
         3           Pt  tau(   3) = (  0.2500000  0.0000000  0.1422636  )
         4           Pt  tau(   4) = (  0.2500000  0.2500000  0.0000000  )
         5           Pt  tau(   5) = (  0.0000000  0.5000000  0.0000000  )
         6           Pt  tau(   6) = (  0.5000000  0.7500000  0.1422636  )
         7           Pt  tau(   7) = (  0.2500000  0.5000000  0.1422636  )
         8           Pt  tau(   8) = (  0.2500000  0.7500000  0.0000000  )
         9           Pt  tau(   9) = (  0.5000000  0.0000000  0.0000000  )
        10           Pt  tau(  10) = (  1.0000000  0.2500000  0.1422636  )
        11           Pt  tau(  11) = (  0.7500000  0.0000000  0.1422636  )
        12           Pt  tau(  12) = (  0.7500000  0.2500000  0.0000000  )
        13           Pt  tau(  13) = (  0.5000000  0.5000000  0.0000000  )
        14           Pt  tau(  14) = (  1.0000000  0.7500000  0.1422636  )
        15           Pt  tau(  15) = (  0.7500000  0.5000000  0.1422636  )
        16           Pt  tau(  16) = (  0.7500000  0.7500000  0.0000000  )

     number of k points=     6  Gaussian smearing, width (Ry)=  0.0030
                       cart. coord. in units 2pi/alat
        k(    1) = (   0.0000000   0.0000000   0.0000000), wk =   0.1250000
        k(    2) = (   0.0000000   0.2500000   0.0000000), wk =   0.5000000
        k(    3) = (   0.0000000  -0.5000000   0.0000000), wk =   0.2500000
        k(    4) = (   0.2500000   0.2500000   0.0000000), wk =   0.5000000
        k(    5) = (   0.2500000  -0.5000000   0.0000000), wk =   0.5000000
        k(    6) = (  -0.5000000  -0.5000000   0.0000000), wk =   0.1250000

                       cryst. coord.
        k(    1) = (   0.0000000   0.0000000   0.0000000), wk =   0.1250000
        k(    2) = (   0.0000000   0.2500000   0.0000000), wk =   0.5000000
        k(    3) = (   0.0000000  -0.5000000   0.0000000), wk =   0.2500000
        k(    4) = (   0.2500000   0.2500000   0.0000000), wk =   0.5000000
        k(    5) = (   0.2500000  -0.5000000   0.0000000), wk =   0.5000000
        k(    6) = (  -0.5000000  -0.5000000   0.0000000), wk =   0.1250000

     Dense  grid:   523697 G-vectors     FFT dimensions: (  90,  90, 150)

     Smooth grid:   132301 G-vectors     FFT dimensions: (  54,  54,  96)

     Dynamical RAM for                 wfc:       1.21 MB

     Dynamical RAM for     wfc (w. buffer):       8.50 MB

     Dynamical RAM for           str. fact:       0.25 MB

     Dynamical RAM for           local pot:       0.00 MB

     Dynamical RAM for          nlocal pot:       2.27 MB

     Dynamical RAM for                qrad:       1.39 MB

     Dynamical RAM for          rho,v,vnew:       1.68 MB

     Dynamical RAM for               rhoin:       0.56 MB

     Dynamical RAM for            rho*nmix:       4.00 MB

     Dynamical RAM for           G-vectors:       0.97 MB

     Dynamical RAM for          h,s,v(r/c):       0.17 MB

     Dynamical RAM for          <psi|beta>:       0.68 MB

     Dynamical RAM for                 psi:       2.43 MB

     Dynamical RAM for                hpsi:       2.43 MB

     Dynamical RAM for                spsi:       2.43 MB

     Dynamical RAM for      wfcinit/wfcrot:       3.87 MB

     Dynamical RAM for           addusdens:      50.46 MB

     Dynamical RAM for          addusforce:      58.14 MB

     Dynamical RAM for         addusstress:      50.21 MB

     Estimated static dynamical RAM per process >      21.66 MB

     Estimated max dynamical RAM per process >      79.80 MB

     Estimated total dynamical RAM >       2.49 GB

     Initial potential from superposition of free atoms

     starting charge  247.99982, renormalised to  256.00000

     negative rho (up, down):  3.024E+00 0.000E+00
     Starting wfcs are  192 randomized atomic wfcs

     total cpu time spent up to now is        1.7 secs

     Self-consistent Calculation

     iteration #  1     ecut=    30.00 Ry     beta= 0.30
     Davidson diagonalization with overlap
     ethr =  1.00E-02,  avg # of iterations =  6.8

     negative rho (up, down):  2.871E+00 0.000E+00

     total cpu time spent up to now is        4.9 secs

     total energy              =   -3363.86295353 Ry
     estimated scf accuracy    <      29.49219417 Ry

     iteration #  2     ecut=    30.00 Ry     beta= 0.30
     Davidson diagonalization with overlap
     ethr =  1.00E-02,  avg # of iterations =  2.8

     negative rho (up, down):  2.857E+00 0.000E+00

     total cpu time spent up to now is        7.6 secs

     total energy              =   -3369.37190078 Ry
     estimated scf accuracy    <       4.83095203 Ry

     iteration #  3     ecut=    30.00 Ry     beta= 0.30
     Davidson diagonalization with overlap
     ethr =  1.89E-03,  avg # of iterations =  2.0

     negative rho (up, down):  2.830E+00 0.000E+00

     total cpu time spent up to now is       10.0 secs

     total energy              =   -3369.91880345 Ry
     estimated scf accuracy    <       0.24221901 Ry

     iteration #  4     ecut=    30.00 Ry     beta= 0.30
     Davidson diagonalization with overlap
     ethr =  9.46E-05,  avg # of iterations =  8.2

     negative rho (up, down):  2.819E+00 0.000E+00

     total cpu time spent up to now is       13.6 secs

     total energy              =   -3369.94367344 Ry
     estimated scf accuracy    <       0.07142537 Ry

     iteration #  5     ecut=    30.00 Ry     beta= 0.30
     Davidson diagonalization with overlap
     ethr =  2.79E-05,  avg # of iterations =  7.7

     negative rho (up, down):  2.808E+00 0.000E+00

     total cpu time spent up to now is       16.7 secs

     total energy              =   -3369.92587911 Ry
     estimated scf accuracy    <       0.61743307 Ry

     iteration #  6     ecut=    30.00 Ry     beta= 0.30
     Davidson diagonalization with overlap
     ethr =  2.79E-05,  avg # of iterations =  2.0

     negative rho (up, down):  2.807E+00 0.000E+00

     total cpu time spent up to now is       19.0 secs

     total energy              =   -3369.95340538 Ry
     estimated scf accuracy    <       0.04214060 Ry

     iteration #  7     ecut=    30.00 Ry     beta= 0.30
     Davidson diagonalization with overlap
     ethr =  1.65E-05,  avg # of iterations =  1.2

     negative rho (up, down):  2.805E+00 0.000E+00

     total cpu time spent up to now is       20.9 secs

     total energy              =   -3369.95130236 Ry
     estimated scf accuracy    <       0.01889543 Ry

     iteration #  8     ecut=    30.00 Ry     beta= 0.30
     Davidson diagonalization with overlap
     ethr =  7.38E-06,  avg # of iterations =  4.2

     negative rho (up, down):  2.803E+00 0.000E+00

     total cpu time spent up to now is       23.3 secs

     total energy              =   -3369.95140909 Ry
     estimated scf accuracy    <       0.00663073 Ry

     iteration #  9     ecut=    30.00 Ry     beta= 0.30
     Davidson diagonalization with overlap
     ethr =  2.59E-06,  avg # of iterations =  2.3

     negative rho (up, down):  2.802E+00 0.000E+00

     total cpu time spent up to now is       25.7 secs

     total energy              =   -3369.95218088 Ry
     estimated scf accuracy    <       0.00073309 Ry

     iteration # 10     ecut=    30.00 Ry     beta= 0.30
     Davidson diagonalization with overlap
     ethr =  2.86E-07,  avg # of iterations =  1.8

     negative rho (up, down):  2.802E+00 0.000E+00

     total cpu time spent up to now is       27.8 secs

     total energy              =   -3369.95216635 Ry
     estimated scf accuracy    <       0.00052927 Ry

     iteration # 11     ecut=    30.00 Ry     beta= 0.30
     Davidson diagonalization with overlap
     ethr =  2.07E-07,  avg # of iterations =  2.0

     negative rho (up, down):  2.802E+00 0.000E+00

     total cpu time spent up to now is       30.2 secs

     total energy              =   -3369.95218357 Ry
     estimated scf accuracy    <       0.00048076 Ry

     iteration # 12     ecut=    30.00 Ry     beta= 0.30
     Davidson diagonalization with overlap
     ethr =  1.88E-07,  avg # of iterations =  2.0

     negative rho (up, down):  2.801E+00 0.000E+00

     total cpu time spent up to now is       32.5 secs

     total energy              =   -3369.95225503 Ry
     estimated scf accuracy    <       0.00012496 Ry

     iteration # 13     ecut=    30.00 Ry     beta= 0.30
     Davidson diagonalization with overlap
     ethr =  4.88E-08,  avg # of iterations =  1.7

     negative rho (up, down):  2.801E+00 0.000E+00

     total cpu time spent up to now is       34.6 secs

     total energy              =   -3369.95226617 Ry
     estimated scf accuracy    <       0.00000311 Ry

     iteration # 14     ecut=    30.00 Ry     beta= 0.30
     Davidson diagonalization with overlap
     ethr =  1.21E-09,  avg # of iterations =  2.0

     negative rho (up, down):  2.801E+00 0.000E+00

     total cpu time spent up to now is       37.1 secs

     End of self-consistent calculation

          k = 0.0000 0.0000 0.0000 ( 16575 PWs)   bands (ev):

   -50.3279 -50.3279 -50.3125 -50.3125 -50.3124 -50.3124 -50.2241 -50.2241
   -50.2240 -50.2239 -50.2138 -50.2138 -50.2103 -50.2103 -50.2101 -50.2101
   -50.1826 -50.1826 -50.1824 -50.1824 -50.1289 -50.1289 -50.1288 -50.1288
   -50.1191 -50.1191 -50.1145 -50.0644 -50.0644 -50.0643 -50.0643 -50.0430
   -50.0430 -50.0259 -50.0259 -50.0258 -50.0258 -49.9799 -49.9798 -49.9779
   -49.9777 -49.9777 -49.9777 -49.9369 -49.9369 -49.9367 -49.9367 -49.9215
    -5.5500  -3.5161  -3.2604  -3.2604  -3.2604  -3.2604  -3.2311  -3.2311
    -3.2311  -3.2311  -3.1132  -2.9863  -2.9863  -2.4797  -2.4797  -1.9856
    -1.9856  -1.9856  -1.9855  -1.7761  -1.7761  -1.7760  -1.7760  -1.7682
    -1.2196  -1.2196  -1.2196  -1.2196  -1.1129  -1.1129  -1.1129  -1.1129
    -0.5991  -0.5991  -0.5990  -0.5990  -0.4732  -0.4732  -0.4732  -0.4731
    -0.2835  -0.2834  -0.2834  -0.2833  -0.2748  -0.2748  -0.2747  -0.2747
    -0.0844  -0.0844   0.1955   0.4370   0.4370   0.4371   0.4371   0.5396
     0.5396   0.5396   0.5396   0.6774   0.6774   0.6775   0.6775   0.7633
     0.7633   0.9225   1.3326   1.3886   1.3887   1.3887   1.3887   1.4326
     1.4327   1.6774   1.6774   1.6775   1.6775   1.7194   1.7194   1.7194
     1.7195   1.9439   1.9439   2.1001   2.8883   2.8884   3.7995   3.7995
     3.7995   3.7995   3.9149   3.9149   3.9149   3.9149   4.0100   6.2191
     6.2191   6.2192   6.2192   6.5069   6.5069   7.4739   7.8261   8.0039
     8.0040   8.0040

     occupation numbers 
     1.0000   1.0000   1.0000   1.0000   1.0000   1.0000   1.0000   1.0000
     1.0000   1.0000   1.0000   1.0000   1.0000   1.0000   1.0000   1.0000
     1.0000   1.0000   1.0000   1.0000   1.0000   1.0000   1.0000   1.0000
     1.0000   1.0000   1.0000   1.0000   1.0000   1.0000   1.0000   1.0000
     1.0000   1.0000   1.0000   1.0000   1.0000   1.0000   1.0000   1.0000
     1.0000   1.0000   1.0000   1.0000   1.0000   1.0000   1.0000   1.0000
     1.0000   1.0000   1.0000   1.0000   1.0000   1.0000   1.0000   1.0000
     1.0000   1.0000   1.0000   1.0000   1.0000   1.0000   1.0000   1.0000
     1.0000   1.0000   1.0000   1.0000   1.0000   1.0000   1.0000   1.0000
     1.0000   1.0000   1.0000   1.0000   1.0000   1.0000   1.0000   1.0000
     1.0000   1.0000   1.0000   1.0000   1.0000   1.0000   1.0000   1.0000
     1.0000   1.0000   1.0000   1.0000   1.0000   1.0000   1.0000   1.0000
     1.0000   1.0000   1.0000   1.0000   1.0000   1.0000   1.0000   1.0000
     1.0000   1.0000   1.0000   1.0000   1.0000   1.0000   1.0000   1.0000
     1.0000   1.0000   1.0000   1.0000   1.0000   1.0000   1.0000   1.0000
     1.0000   1.0000   1.0000   1.0000   1.0000   1.0000   1.0000   1.0000
     1.0000   0.0034   0.0034   0.0000   0.0000   0.0000   0.0000   0.0000
     0.0000   0.0000   0.0000   0.0000   0.0000   0.0000   0.0000   0.0000
     0.0000   0.0000   0.0000   0.0000   0.0000   0.0000   0.0000   0.0000
     0.0000   0.0000

          k = 0.0000 0.2500 0.0000 ( 16540 PWs)   bands (ev):

   -50.3200 -50.3191 -50.3088 -50.3088 -50.2981 -50.2981 -50.2639 -50.2554
   -50.2532 -50.2532 -50.2324 -50.2323 -50.2125 -50.2074 -50.1981 -50.1840
   -50.1659 -50.1626 -50.1613 -50.1513 -50.1512 -50.1272 -50.1253 -50.1175
   -50.1096 -50.1095 -50.0961 -50.0800 -50.0800 -50.0651 -50.0651 -50.0495
   -50.0463 -50.0410 -50.0223 -50.0222 -50.0088 -49.9954 -49.9952 -49.9834
   -49.9757 -49.9616 -49.9615 -49.9502 -49.9399 -49.9397 -49.9272 -49.9214
    -5.3622  -4.0309  -3.3457  -3.3140  -3.3140  -3.2417  -3.2417  -3.0637
    -3.0637  -3.0076  -2.9011  -2.8593  -2.7884  -2.4300  -2.4228  -2.2777
    -2.2691  -2.2691  -2.1856  -2.0613  -2.0489  -1.7522  -1.6866  -1.6865
    -1.6659  -1.3663  -1.3663  -1.0713  -1.0713  -1.0064  -1.0064  -0.8841
    -0.7463  -0.6058  -0.6058  -0.5768  -0.4886  -0.4885  -0.4629  -0.4629
    -0.4314  -0.4314  -0.3968  -0.2786  -0.2035  -0.2034  -0.1642  -0.0522
     0.2047   0.2138   0.2499   0.3287   0.5633   0.5634   0.6343   0.6586
     0.6587   0.6753   0.6754   0.7436   0.7548   0.8171   0.8172   1.0163
     1.0351   1.0834   1.2285   1.3161   1.3161   1.3177   1.3753   1.4103
     1.4652   1.4652   1.6905   1.6959   1.6959   1.7364   1.7511   1.8118
     1.8424   1.8425   1.9172   1.9948   2.3154   2.6415   2.8343   2.8343
     2.9094   3.9868   3.9868   4.5312   4.5367   4.5367   5.1442   5.2161
     5.9747   5.9747   6.7397   7.2092   7.3456   7.3456   7.6437   7.9603
     8.0892   8.0893

     occupation numbers 
     1.0000   1.0000   1.0000   1.0000   1.0000   1.0000   1.0000   1.0000
     1.0000   1.0000   1.0000   1.0000   1.0000   1.0000   1.0000   1.0000
     1.0000   1.0000   1.0000   1.0000   1.0000   1.0000   1.0000   1.0000
     1.0000   1.0000   1.0000   1.0000   1.0000   1.0000   1.0000   1.0000
     1.0000   1.0000   1.0000   1.0000   1.0000   1.0000   1.0000   1.0000
     1.0000   1.0000   1.0000   1.0000   1.0000   1.0000   1.0000   1.0000
     1.0000   1.0000   1.0000   1.0000   1.0000   1.0000   1.0000   1.0000
     1.0000   1.0000   1.0000   1.0000   1.0000   1.0000   1.0000   1.0000
     1.0000   1.0000   1.0000   1.0000   1.0000   1.0000   1.0000   1.0000
     1.0000   1.0000   1.0000   1.0000   1.0000   1.0000   1.0000   1.0000
     1.0000   1.0000   1.0000   1.0000   1.0000   1.0000   1.0000   1.0000
     1.0000   1.0000   1.0000   1.0000   1.0000   1.0000   1.0000   1.0000
     1.0000   1.0000   1.0000   1.0000   1.0000   1.0000   1.0000   1.0000
     1.0000   1.0000   1.0000   1.0000   1.0000   1.0000   1.0000   1.0000
     1.0000   1.0000   1.0000   1.0000   1.0000   1.0000   1.0000   1.0000
     1.0000   1.0000   1.0000   1.0000   1.0000   1.0000   1.0000   0.9693
     0.7909   0.7905   0.0375   0.0000   0.0000   0.0000   0.0000   0.0000
     0.0000   0.0000   0.0000   0.0000   0.0000   0.0000   0.0000   0.0000
     0.0000   0.0000   0.0000   0.0000   0.0000   0.0000   0.0000   0.0000
     0.0000   0.0000

          k = 0.0000-0.5000 0.0000 ( 16478 PWs)   bands (ev):

   -50.2976 -50.2975 -50.2937 -50.2936 -50.2876 -50.2876 -50.2876 -50.2876
   -50.2690 -50.2689 -50.2689 -50.2689 -50.2078 -50.2077 -50.1890 -50.1889
   -50.1500 -50.1500 -50.1417 -50.1417 -50.1326 -50.1326 -50.1107 -50.1107
   -50.1107 -50.1106 -50.0815 -50.0815 -50.0815 -50.0815 -50.0682 -50.0681
   -50.0486 -50.0486 -50.0114 -50.0114 -50.0113 -50.0112 -49.9937 -49.9936
   -49.9645 -49.9644 -49.9485 -49.9484 -49.9484 -49.9483 -49.9225 -49.9224
    -4.8237  -4.8236  -3.2812  -3.2812  -3.2812  -3.2812  -2.8619  -2.8618
    -2.7491  -2.7491  -2.7146  -2.7146  -2.7146  -2.7146  -2.7045  -2.7044
    -2.5089  -2.5089  -2.2648  -2.2647  -2.2188  -2.2187  -1.5154  -1.5154
    -1.5154  -1.5154  -1.3641  -1.3641  -0.8720  -0.8719  -0.8719  -0.8719
    -0.7093  -0.7092  -0.7092  -0.7092  -0.6306  -0.6306  -0.6305  -0.6305
    -0.5624  -0.5623  -0.3692  -0.3692   0.1794   0.1795   0.3208   0.3208
     0.3208   0.3209   0.3454   0.3455   0.4399   0.4399   0.6717   0.6717
     0.8487   0.8487   0.8488   0.8488   1.1111   1.1111   1.1111   1.1112
     1.1237   1.1237   1.2392   1.2393   1.3257   1.3257   1.4140   1.4140
     1.4140   1.4141   1.4294   1.4295   1.4418   1.4418   1.8464   1.8465
     2.1066   2.1066   2.1118   2.1119   2.2064   2.2064   2.2064   2.2064
     3.2582   3.2582   4.2331   4.2331   4.2332   4.2332   5.5648   5.5648
     6.6956   6.6956   7.5315   7.5315   7.5315   7.5316   8.1178   8.1179
     8.1512   8.1513

     occupation numbers 
     1.0000   1.0000   1.0000   1.0000   1.0000   1.0000   1.0000   1.0000
     1.0000   1.0000   1.0000   1.0000   1.0000   1.0000   1.0000   1.0000
     1.0000   1.0000   1.0000   1.0000   1.0000   1.0000   1.0000   1.0000
     1.0000   1.0000   1.0000   1.0000   1.0000   1.0000   1.0000   1.0000
     1.0000   1.0000   1.0000   1.0000   1.0000   1.0000   1.0000   1.0000
     1.0000   1.0000   1.0000   1.0000   1.0000   1.0000   1.0000   1.0000
     1.0000   1.0000   1.0000   1.0000   1.0000   1.0000   1.0000   1.0000
     1.0000   1.0000   1.0000   1.0000   1.0000   1.0000   1.0000   1.0000
     1.0000   1.0000   1.0000   1.0000   1.0000   1.0000   1.0000   1.0000
     1.0000   1.0000   1.0000   1.0000   1.0000   1.0000   1.0000   1.0000
     1.0000   1.0000   1.0000   1.0000   1.0000   1.0000   1.0000   1.0000
     1.0000   1.0000   1.0000   1.0000   1.0000   1.0000   1.0000   1.0000
     1.0000   1.0000   1.0000   1.0000   1.0000   1.0000   1.0000   1.0000
     1.0000   1.0000   1.0000   1.0000   1.0000   1.0000   1.0000   1.0000
     1.0000   1.0000   1.0000   1.0000   1.0000   1.0000   1.0000   1.0000
     1.0000   1.0000   1.0000   1.0000   1.0000   1.0000   0.7486   0.7481
     0.0000   0.0000   0.0000   0.0000   0.0000   0.0000   0.0000   0.0000
     0.0000   0.0000   0.0000   0.0000   0.0000   0.0000   0.0000   0.0000
     0.0000   0.0000   0.0000   0.0000   0.0000   0.0000   0.0000   0.0000
     0.0000   0.0000

          k = 0.2500 0.2500 0.0000 ( 16567 PWs)   bands (ev):

   -50.3147 -50.3147 -50.3087 -50.3086 -50.2922 -50.2810 -50.2810 -50.2713
   -50.2698 -50.2698 -50.2200 -50.2200 -50.2036 -50.2035 -50.1904 -50.1904
   -50.1737 -50.1737 -50.1514 -50.1454 -50.1454 -50.1301 -50.1300 -50.1254
   -50.1137 -50.0930 -50.0929 -50.0814 -50.0784 -50.0784 -50.0561 -50.0523
   -50.0434 -50.0384 -50.0383 -50.0139 -50.0047 -50.0047 -49.9793 -49.9792
   -49.9777 -49.9776 -49.9535 -49.9535 -49.9476 -49.9297 -49.9297 -49.9219
    -5.1889  -3.9762  -3.9762  -3.6058  -3.2738  -3.0674  -2.9554  -2.9553
    -2.8208  -2.7836  -2.7836  -2.7801  -2.7801  -2.6333  -2.6333  -2.3816
    -2.3816  -2.2299  -2.2299  -1.9113  -1.9113  -1.8346  -1.8346  -1.6902
    -1.6902  -1.5631  -1.5186  -1.1899  -1.1899  -0.8707  -0.8401  -0.8401
    -0.8074  -0.8074  -0.7673  -0.7672  -0.5357  -0.3879  -0.3879  -0.3743
    -0.3743  -0.2879  -0.2879  -0.2053  -0.0843  -0.0592  -0.0099  -0.0098
     0.0474   0.2041   0.2176   0.3004   0.3004   0.3234   0.3234   0.6397
     0.6397   0.9649   0.9649   0.9880   0.9883   0.9883   1.0415   1.0415
     1.1075   1.1075   1.1654   1.1654   1.2766   1.2767   1.2838   1.3502
     1.3503   1.4416   1.5065   1.5490   1.5490   1.7540   1.8910   1.8910
     1.8946   1.9627   2.0606   2.1363   2.1364   2.4416   2.4416   2.9347
     2.9347   3.6092   4.3605   4.3605   4.9093   5.3134   5.3134   5.8953
     5.8953   6.5945   6.5946   6.8812   6.8812   7.1211   7.5981   7.8117
     8.0932   8.5281

     occupation numbers 
     1.0000   1.0000   1.0000   1.0000   1.0000   1.0000   1.0000   1.0000
     1.0000   1.0000   1.0000   1.0000   1.0000   1.0000   1.0000   1.0000
     1.0000   1.0000   1.0000   1.0000   1.0000   1.0000   1.0000   1.0000
     1.0000   1.0000   1.0000   1.0000   1.0000   1.0000   1.0000   1.0000
     1.0000   1.0000   1.0000   1.0000   1.0000   1.0000   1.0000   1.0000
     1.0000   1.0000   1.0000   1.0000   1.0000   1.0000   1.0000   1.0000
     1.0000   1.0000   1.0000   1.0000   1.0000   1.0000   1.0000   1.0000
     1.0000   1.0000   1.0000   1.0000   1.0000   1.0000   1.0000   1.0000
     1.0000   1.0000   1.0000   1.0000   1.0000   1.0000   1.0000   1.0000
     1.0000   1.0000   1.0000   1.0000   1.0000   1.0000   1.0000   1.0000
     1.0000   1.0000   1.0000   1.0000   1.0000   1.0000   1.0000   1.0000
     1.0000   1.0000   1.0000   1.0000   1.0000   1.0000   1.0000   1.0000
     1.0000   1.0000   1.0000   1.0000   1.0000   1.0000   1.0000   1.0000
     1.0000   1.0000   1.0000   1.0000   1.0000   1.0000   1.0000   1.0000
     1.0000   1.0000   1.0000   1.0000   1.0000   1.0000   1.0000   1.0000
     1.0000   1.0000   1.0000   1.0000   1.0000   0.9999   0.1908   0.1908
     0.1592   0.0004   0.0000   0.0000   0.0000   0.0000   0.0000   0.0000
     0.0000   0.0000   0.0000   0.0000   0.0000   0.0000   0.0000   0.0000
     0.0000   0.0000   0.0000   0.0000   0.0000   0.0000   0.0000   0.0000
     0.0000   0.0000

          k = 0.2500-0.5000 0.0000 ( 16554 PWs)   bands (ev):

   -50.3019 -50.3019 -50.3018 -50.3018 -50.2980 -50.2980 -50.2935 -50.2934
   -50.2610 -50.2610 -50.2327 -50.2327 -50.1921 -50.1920 -50.1845 -50.1845
   -50.1792 -50.1791 -50.1515 -50.1515 -50.1317 -50.1317 -50.1168 -50.1168
   -50.1158 -50.1158 -50.0985 -50.0985 -50.0605 -50.0604 -50.0569 -50.0569
   -50.0463 -50.0463 -50.0298 -50.0298 -49.9933 -49.9933 -49.9895 -49.9894
   -49.9680 -49.9680 -49.9632 -49.9631 -49.9368 -49.9367 -49.9241 -49.9241
    -4.6954  -4.6953  -3.8272  -3.8272  -3.0285  -3.0285  -2.9237  -2.9237
    -2.8312  -2.8312  -2.6741  -2.6741  -2.5662  -2.5661  -2.4704  -2.4703
    -2.3467  -2.3467  -2.2318  -2.2317  -2.1670  -2.1670  -1.6197  -1.6197
    -1.5964  -1.5963  -1.4543  -1.4543  -1.2648  -1.2648  -0.7865  -0.7865
    -0.7617  -0.7617  -0.6555  -0.6555  -0.5401  -0.5401  -0.5064  -0.5064
    -0.3013  -0.3012  -0.1635  -0.1635  -0.1547  -0.1547   0.1280   0.1280
     0.3237   0.3237   0.3315   0.3315   0.4793   0.4793   0.4887   0.4887
     0.7049   0.7049   0.7514   0.7514   1.0720   1.0720   1.0842   1.0843
     1.1113   1.1113   1.1753   1.1753   1.2146   1.2146   1.3355   1.3355
     1.4082   1.4082   1.5000   1.5000   1.5176   1.5176   1.8220   1.8220
     2.0138   2.0138   2.0233   2.0233   2.1027   2.1028   3.0881   3.0882
     3.3914   3.3914   3.9853   3.9854   5.7602   5.7602   5.7903   5.7904
     6.3855   6.3855   6.8189   6.8189   7.2511   7.2512   7.4457   7.4457
     8.3247   8.3250

     occupation numbers 
     1.0000   1.0000   1.0000   1.0000   1.0000   1.0000   1.0000   1.0000
     1.0000   1.0000   1.0000   1.0000   1.0000   1.0000   1.0000   1.0000
     1.0000   1.0000   1.0000   1.0000   1.0000   1.0000   1.0000   1.0000
     1.0000   1.0000   1.0000   1.0000   1.0000   1.0000   1.0000   1.0000
     1.0000   1.0000   1.0000   1.0000   1.0000   1.0000   1.0000   1.0000
     1.0000   1.0000   1.0000   1.0000   1.0000   1.0000   1.0000   1.0000
     1.0000   1.0000   1.0000   1.0000   1.0000   1.0000   1.0000   1.0000
     1.0000   1.0000   1.0000   1.0000   1.0000   1.0000   1.0000   1.0000
     1.0000   1.0000   1.0000   1.0000   1.0000   1.0000   1.0000   1.0000
     1.0000   1.0000   1.0000   1.0000   1.0000   1.0000   1.0000   1.0000
     1.0000   1.0000   1.0000   1.0000   1.0000   1.0000   1.0000   1.0000
     1.0000   1.0000   1.0000   1.0000   1.0000   1.0000   1.0000   1.0000
     1.0000   1.0000   1.0000   1.0000   1.0000   1.0000   1.0000   1.0000
     1.0000   1.0000   1.0000   1.0000   1.0000   1.0000   1.0000   1.0000
     1.0000   1.0000   1.0000   1.0000   1.0000   1.0000   1.0000   1.0000
     1.0000   1.0000   1.0000   1.0000   1.0000   1.0000   0.9353   0.9353
     0.0000   0.0000   0.0000   0.0000   0.0000   0.0000   0.0000   0.0000
     0.0000   0.0000   0.0000   0.0000   0.0000   0.0000   0.0000   0.0000
     0.0000   0.0000   0.0000   0.0000   0.0000   0.0000   0.0000   0.0000
     0.0000   0.0000

          k =-0.5000-0.5000 0.0000 ( 16564 PWs)   bands (ev):

   -50.3040 -50.3040 -50.3039 -50.3039 -50.3038 -50.3038 -50.3038 -50.3038
   -50.2249 -50.2249 -50.2249 -50.2249 -50.1905 -50.1905 -50.1905 -50.1905
   -50.1568 -50.1568 -50.1568 -50.1567 -50.1567 -50.1567 -50.1567 -50.1567
   -50.0996 -50.0996 -50.0996 -50.0996 -50.0466 -50.0466 -50.0466 -50.0465
   -50.0458 -50.0458 -50.0457 -50.0457 -49.9782 -49.9782 -49.9782 -49.9782
   -49.9782 -49.9781 -49.9781 -49.9780 -49.9289 -49.9288 -49.9288 -49.9288
    -4.3373  -4.3373  -4.3373  -4.3372  -3.0578  -3.0577  -3.0577  -3.0577
    -2.5583  -2.5583  -2.5583  -2.5583  -2.5583  -2.5582  -2.5582  -2.5582
    -1.9514  -1.9514  -1.9513  -1.9513  -1.9513  -1.9513  -1.9513  -1.9513
    -1.8602  -1.8601  -1.8601  -1.8601  -0.9925  -0.9924  -0.9924  -0.9924
    -0.8688  -0.8688  -0.8688  -0.8688  -0.1086  -0.1086  -0.1086  -0.1086
    -0.1085  -0.1085  -0.1085  -0.1084  -0.0643  -0.0643  -0.0643  -0.0643
    -0.0109  -0.0109  -0.0109  -0.0109   0.3955   0.3955   0.3955   0.3956
     0.8208   0.8208   0.8208   0.8208   0.8208   0.8208   0.8208   0.8208
     0.9035   0.9036   0.9036   0.9036   1.5538   1.5538   1.5538   1.5539
     1.5546   1.5546   1.5546   1.5546   1.5546   1.5547   1.5547   1.5547
     2.0976   2.0976   2.0976   2.0976   2.3382   2.3382   2.3382   2.3382
     5.1691   5.1691   5.1691   5.1691   5.1691   5.1691   5.1691   5.1691
     6.4020   6.4020   6.4020   6.4020   7.7033   7.7033   7.7033   7.7033
     7.7033   7.7033

     occupation numbers 
     1.0000   1.0000   1.0000   1.0000   1.0000   1.0000   1.0000   1.0000
     1.0000   1.0000   1.0000   1.0000   1.0000   1.0000   1.0000   1.0000
     1.0000   1.0000   1.0000   1.0000   1.0000   1.0000   1.0000   1.0000
     1.0000   1.0000   1.0000   1.0000   1.0000   1.0000   1.0000   1.0000
     1.0000   1.0000   1.0000   1.0000   1.0000   1.0000   1.0000   1.0000
     1.0000   1.0000   1.0000   1.0000   1.0000   1.0000   1.0000   1.0000
     1.0000   1.0000   1.0000   1.0000   1.0000   1.0000   1.0000   1.0000
     1.0000   1.0000   1.0000   1.0000   1.0000   1.0000   1.0000   1.0000
     1.0000   1.0000   1.0000   1.0000   1.0000   1.0000   1.0000   1.0000
     1.0000   1.0000   1.0000   1.0000   1.0000   1.0000   1.0000   1.0000
     1.0000   1.0000   1.0000   1.0000   1.0000   1.0000   1.0000   1.0000
     1.0000   1.0000   1.0000   1.0000   1.0000   1.0000   1.0000   1.0000
     1.0000   1.0000   1.0000   1.0000   1.0000   1.0000   1.0000   1.0000
     1.0000   1.0000   1.0000   1.0000   1.0000   1.0000   1.0000   1.0000
     1.0000   1.0000   1.0000   1.0000   1.0000   1.0000   1.0000   1.0000
     1.0000   1.0000   1.0000   1.0000   1.0000   1.0000   1.0000   1.0000
     0.0000   0.0000   0.0000   0.0000   0.0000   0.0000   0.0000   0.0000
     0.0000   0.0000   0.0000   0.0000   0.0000   0.0000   0.0000   0.0000
     0.0000   0.0000   0.0000   0.0000   0.0000   0.0000   0.0000   0.0000
     0.0000   0.0000

     the Fermi energy is     1.8658 ev

!    total energy              =   -3369.95226653 Ry
     estimated scf accuracy    <       0.00000064 Ry
     smearing contrib. (-TS)   =      -0.00221822 Ry
     internal energy E=F+TS    =   -3369.95004831 Ry

     The total energy is F=E-TS. E is the sum of the following terms:
     one-electron contribution =   -9112.32246460 Ry
     hartree contribution      =    4602.16214529 Ry
     xc contribution           =    -908.00542454 Ry
     ewald contribution        =    2048.21569554 Ry

     convergence has been achieved in  14 iterations

     negative rho (up, down):  2.801E+00 0.000E+00

     Forces acting on atoms (cartesian axes, Ry/au):

     atom    1 type  1   force =     0.00000000    0.00000000    0.02538078
     atom    2 type  1   force =     0.00000000   -0.00002818   -0.02534375
     atom    3 type  1   force =    -0.00000545    0.00000000   -0.02531562
     atom    4 type  1   force =    -0.00000744   -0.00000744    0.02531645
     atom    5 type  1   force =     0.00000000    0.00000000    0.02533867
     atom    6 type  1   force =     0.00000000    0.00002818   -0.02534375
     atom    7 type  1   force =    -0.00002818    0.00000000   -0.02534375
     atom    8 type  1   force =    -0.00000744    0.00000744    0.02531645
     atom    9 type  1   force =     0.00000000    0.00000000    0.02533867
     atom   10 type  1   force =    -0.00000000   -0.00000545   -0.02531562
     atom   11 type  1   force =     0.00000545   -0.00000000   -0.02531562
     atom   12 type  1   force =     0.00000744   -0.00000744    0.02531645
     atom   13 type  1   force =     0.00000000    0.00000000    0.02531356
     atom   14 type  1   force =     0.00000000    0.00000545   -0.02531562
     atom   15 type  1   force =     0.00002818    0.00000000   -0.02534375
     atom   16 type  1   force =     0.00000744    0.00000744    0.02531645
     The non-local contrib.  to forces
     atom    1 type  1   force =     0.00000000    0.00000000   -0.07582495
     atom    2 type  1   force =     0.00000000   -0.00001760    0.07586969
     atom    3 type  1   force =    -0.00001148    0.00000000    0.07587684
     atom    4 type  1   force =    -0.00000774   -0.00000774   -0.07585407
     atom    5 type  1   force =     0.00000000    0.00000000   -0.07583796
     atom    6 type  1   force =    -0.00000000    0.00001760    0.07586969
     atom    7 type  1   force =    -0.00001760   -0.00000000    0.07586969
     atom    8 type  1   force =    -0.00000774    0.00000774   -0.07585407
     atom    9 type  1   force =     0.00000000    0.00000000   -0.07583796
     atom   10 type  1   force =     0.00000000   -0.00001148    0.07587684
     atom   11 type  1   force =     0.00001148   -0.00000000    0.07587684
     atom   12 type  1   force =     0.00000774   -0.00000774   -0.07585407
     atom   13 type  1   force =     0.00000000    0.00000000   -0.07585183
     atom   14 type  1   force =    -0.00000000    0.00001148    0.07587684
     atom   15 type  1   force =     0.00001760    0.00000000    0.07586969
     atom   16 type  1   force =     0.00000774    0.00000774   -0.07585407
     The ionic contribution  to forces
     atom    1 type  1   force =     0.00000000    0.00000000  -77.02202201
     atom    2 type  1   force =     0.00000000   -0.00000000   77.02202201
     atom    3 type  1   force =    -0.00000000    0.00000000   77.02202201
     atom    4 type  1   force =    -0.00000000   -0.00000000  -77.02202201
     atom    5 type  1   force =     0.00000000    0.00000000  -77.02202201
     atom    6 type  1   force =    -0.00000000   -0.00000000   77.02202201
     atom    7 type  1   force =    -0.00000000    0.00000000   77.02202201
     atom    8 type  1   force =    -0.00000000    0.00000000  -77.02202201
     atom    9 type  1   force =     0.00000000    0.00000000  -77.02202201
     atom   10 type  1   force =     0.00000000   -0.00000000   77.02202201
     atom   11 type  1   force =     0.00000000    0.00000000   77.02202201
     atom   12 type  1   force =     0.00000000   -0.00000000  -77.02202201
     atom   13 type  1   force =     0.00000000    0.00000000  -77.02202201
     atom   14 type  1   force =    -0.00000000   -0.00000000   77.02202201
     atom   15 type  1   force =    -0.00000000   -0.00000000   77.02202201
     atom   16 type  1   force =     0.00000000    0.00000000  -77.02202201
     The local contribution  to forces
     atom    1 type  1   force =    -0.00000000   -0.00000000   77.09572829
     atom    2 type  1   force =     0.00000000    0.00056735  -77.09651422
     atom    3 type  1   force =     0.00028005   -0.00000000  -77.09649788
     atom    4 type  1   force =     0.00034752    0.00034752   77.09590025
     atom    5 type  1   force =    -0.00000000    0.00000000   77.09577735
     atom    6 type  1   force =     0.00000000   -0.00056735  -77.09651422
     atom    7 type  1   force =     0.00056735    0.00000000  -77.09651422
     atom    8 type  1   force =     0.00034752   -0.00034752   77.09590025
     atom    9 type  1   force =     0.00000000   -0.00000000   77.09577735
     atom   10 type  1   force =     0.00000000    0.00028005  -77.09649788
     atom   11 type  1   force =    -0.00028005   -0.00000000  -77.09649788
     atom   12 type  1   force =    -0.00034752    0.00034752   77.09590025
     atom   13 type  1   force =     0.00000000    0.00000000   77.09612519
     atom   14 type  1   force =     0.00000000   -0.00028005  -77.09649788
     atom   15 type  1   force =    -0.00056735    0.00000000  -77.09651422
     atom   16 type  1   force =    -0.00034752   -0.00034752   77.09590025
     The core correction contribution to forces
     atom    1 type  1   force =     0.00000000    0.00000000    0.02563186
     atom    2 type  1   force =     0.00000000    0.00000252   -0.02562519
     atom    3 type  1   force =     0.00000019    0.00000000   -0.02562027
     atom    4 type  1   force =     0.00000141    0.00000141    0.02561967
     atom    5 type  1   force =     0.00000000    0.00000000    0.02562544
     atom    6 type  1   force =     0.00000000   -0.00000252   -0.02562519
     atom    7 type  1   force =     0.00000252    0.00000000   -0.02562519
     atom    8 type  1   force =     0.00000141   -0.00000141    0.02561967
     atom    9 type  1   force =    -0.00000000    0.00000000    0.02562544
     atom   10 type  1   force =    -0.00000000    0.00000019   -0.02562027
     atom   11 type  1   force =    -0.00000019    0.00000000   -0.02562027
     atom   12 type  1   force =    -0.00000141    0.00000141    0.02561967
     atom   13 type  1   force =     0.00000000    0.00000000    0.02562655
     atom   14 type  1   force =     0.00000000   -0.00000019   -0.02562027
     atom   15 type  1   force =    -0.00000252    0.00000000   -0.02562519
     atom   16 type  1   force =    -0.00000141   -0.00000141    0.02561967
     The Hubbard contrib.    to forces
     atom    1 type  1   force =     0.00000000    0.00000000    0.00000000
     atom    2 type  1   force =     0.00000000    0.00000000    0.00000000
     atom    3 type  1   force =     0.00000000    0.00000000    0.00000000
     atom    4 type  1   force =     0.00000000    0.00000000    0.00000000
     atom    5 type  1   force =     0.00000000    0.00000000    0.00000000
     atom    6 type  1   force =     0.00000000    0.00000000    0.00000000
     atom    7 type  1   force =     0.00000000    0.00000000    0.00000000
     atom    8 type  1   force =     0.00000000    0.00000000    0.00000000
     atom    9 type  1   force =     0.00000000    0.00000000    0.00000000
     atom   10 type  1   force =     0.00000000    0.00000000    0.00000000
     atom   11 type  1   force =     0.00000000    0.00000000    0.00000000
     atom   12 type  1   force =     0.00000000    0.00000000    0.00000000
     atom   13 type  1   force =     0.00000000    0.00000000    0.00000000
     atom   14 type  1   force =     0.00000000    0.00000000    0.00000000
     atom   15 type  1   force =     0.00000000    0.00000000    0.00000000
     atom   16 type  1   force =     0.00000000    0.00000000    0.00000000
     The SCF correction term to forces
     atom    1 type  1   force =     0.00000000   -0.00000000    0.00188001
     atom    2 type  1   force =     0.00000000   -0.00058044   -0.00108361
     atom    3 type  1   force =    -0.00027422    0.00000000   -0.00108390
     atom    4 type  1   force =    -0.00034863   -0.00034863    0.00168503
     atom    5 type  1   force =     0.00000000   -0.00000000    0.00180828
     atom    6 type  1   force =     0.00000000    0.00058044   -0.00108361
     atom    7 type  1   force =    -0.00058044   -0.00000000   -0.00108361
     atom    8 type  1   force =    -0.00034863    0.00034863    0.00168503
     atom    9 type  1   force =    -0.00000000   -0.00000000    0.00180828
     atom   10 type  1   force =    -0.00000000   -0.00027422   -0.00108390
     atom   11 type  1   force =     0.00027422    0.00000000   -0.00108390
     atom   12 type  1   force =     0.00034863   -0.00034863    0.00168503
     atom   13 type  1   force =    -0.00000000   -0.00000000    0.00144809
     atom   14 type  1   force =     0.00000000    0.00027422   -0.00108390
     atom   15 type  1   force =     0.00058044   -0.00000000   -0.00108361
     atom   16 type  1   force =     0.00034863    0.00034863    0.00168503

     Total force =     0.101319     Total SCF correction =     0.005962


     Computing stress (Cartesian axis) and pressure


     negative rho (up, down):  2.801E+00 0.000E+00
          total   stress  (Ry/bohr**3)                   (kbar)     P=      -66.72
  -0.00057047   0.00000000   0.00000000          -83.92        0.00        0.00
   0.00000000  -0.00057047   0.00000000            0.00      -83.92        0.00
   0.00000000   0.00000000  -0.00021981            0.00        0.00      -32.34

     kinetic stress (kbar)  14893.42      0.00      0.00
                                0.00  14893.42      0.00
                                0.00      0.00  15144.03

     local   stress (kbar)-206003.28      0.00     -0.00
                                0.00-206003.28     -0.00
                               -0.00     -0.00 215729.94

     nonloc. stress (kbar)   -119.43      0.00      0.00
                                0.00   -119.43      0.00
                                0.00      0.00    -74.63

     hartree stress (kbar) 105690.38     -0.00     -0.00
                               -0.00 105690.38      0.00
                               -0.00      0.00 -97914.90

     exc-cor stress (kbar)  11034.09      0.00      0.00
                                0.00  11034.09      0.00
                                0.00      0.00  11025.97

     corecor stress (kbar) -15197.48      0.00      0.00
                                0.00 -15197.48     -0.00
                                0.00     -0.00 -15204.56

     ewald   stress (kbar)  89618.37      0.00      0.00
                                0.00  89618.37      0.00
                                0.00      0.00-128738.18

     hubbard stress (kbar)      0.00      0.00      0.00
                                0.00      0.00      0.00
                                0.00      0.00      0.00

     DFT-D   stress (kbar)      0.00      0.00      0.00
                                0.00      0.00      0.00
                                0.00      0.00      0.00

     XDM     stress (kbar)      0.00      0.00      0.00
                                0.00      0.00      0.00
                                0.00      0.00      0.00

     dft-nl  stress (kbar)      0.00      0.00      0.00
                                0.00      0.00      0.00
                                0.00      0.00      0.00

     TS-vdW  stress (kbar)      0.00      0.00      0.00
                                0.00      0.00      0.00
                                0.00      0.00      0.00



     BFGS Geometry Optimization
     Energy error            =      0.0E+00
     Gradient error          =      2.5E-02

     number of scf cycles    =   1
     number of bfgs steps    =   0

     energy   new            =   -3369.9522665314 Ry

     new trust radius        =       0.0253807755 bohr
     new conv_thr            =       0.0000010000 Ry


ATOMIC_POSITIONS (angstrom)
Pt            0.0000000000        0.0000000000        0.0134309280
Pt            3.9767700000        1.9883700901        1.9749736665
Pt            1.9883821146        0.0000000000        1.9749885498
Pt            1.9883810648        1.9883810648        0.0133968878
Pt            0.0000000000        3.9767700000        0.0134086479
Pt            3.9767700000        5.9651699099        1.9749736665
Pt            1.9883700901        3.9767700000        1.9749736665
Pt            1.9883810648        5.9651589352        0.0133968878
Pt            3.9767700000        0.0000000000        0.0134086479
Pt            7.9535400000        1.9883821146        1.9749885498
Pt            5.9651578854       -0.0000000000        1.9749885498
Pt            5.9651589352        1.9883810648        0.0133968878
Pt            3.9767700000        3.9767700000        0.0133953600
Pt            7.9535400000        5.9651578854        1.9749885498
Pt            5.9651699099        3.9767700000        1.9749736665
Pt            5.9651589352        5.9651589352        0.0133968878



     Writing output data file ./surface.save/
     NEW-OLD atomic charge density approx. for the potential

     negative rho (up, down):  2.810E+00 0.000E+00

     total cpu time spent up to now is       41.2 secs

     Self-consistent Calculation

     iteration #  1     ecut=    30.00 Ry     beta= 0.30
     Davidson diagonalization with overlap
     ethr =  1.00E-06,  avg # of iterations =  6.2

     negative rho (up, down):  2.810E+00 0.000E+00

     total cpu time spent up to now is       46.6 secs

     total energy              =   -3369.96132842 Ry
     estimated scf accuracy    <       0.00063222 Ry

     iteration #  2     ecut=    30.00 Ry     beta= 0.30
     Davidson diagonalization with overlap
     ethr =  2.47E-07,  avg # of iterations =  2.0

     negative rho (up, down):  2.810E+00 0.000E+00

     total cpu time spent up to now is       48.8 secs

     total energy              =   -3369.96124335 Ry
     estimated scf accuracy    <       0.00127943 Ry

     iteration #  3     ecut=    30.00 Ry     beta= 0.30
     Davidson diagonalization with overlap
     ethr =  2.47E-07,  avg # of iterations =  1.2

     negative rho (up, down):  2.810E+00 0.000E+00

     total cpu time spent up to now is       50.7 secs

     total energy              =   -3369.96129340 Ry
     estimated scf accuracy    <       0.00107205 Ry

     iteration #  4     ecut=    30.00 Ry     beta= 0.30
     Davidson diagonalization with overlap
     ethr =  2.47E-07,  avg # of iterations =  1.0

     negative rho (up, down):  2.810E+00 0.000E+00

     total cpu time spent up to now is       52.6 secs

     total energy              =   -3369.96129796 Ry
     estimated scf accuracy    <       0.00045034 Ry

     iteration #  5     ecut=    30.00 Ry     beta= 0.30
     Davidson diagonalization with overlap
     ethr =  1.76E-07,  avg # of iterations =  1.0

     negative rho (up, down):  2.810E+00 0.000E+00

     total cpu time spent up to now is       54.5 secs

     total energy              =   -3369.96132615 Ry
     estimated scf accuracy    <       0.00024311 Ry

     iteration #  6     ecut=    30.00 Ry     beta= 0.30
     Davidson diagonalization with overlap
     ethr =  9.50E-08,  avg # of iterations =  1.0

     negative rho (up, down):  2.810E+00 0.000E+00

     total cpu time spent up to now is       56.4 secs

     total energy              =   -3369.96133977 Ry
     estimated scf accuracy    <       0.00005676 Ry

     iteration #  7     ecut=    30.00 Ry     beta= 0.30
     Davidson diagonalization with overlap
     ethr =  2.22E-08,  avg # of iterations =  1.0

     negative rho (up, down):  2.810E+00 0.000E+00

     total cpu time spent up to now is       58.3 secs

     total energy              =   -3369.96134394 Ry
     estimated scf accuracy    <       0.00000450 Ry

     iteration #  8     ecut=    30.00 Ry     beta= 0.30
     Davidson diagonalization with overlap
     ethr =  1.76E-09,  avg # of iterations =  1.8

     negative rho (up, down):  2.810E+00 0.000E+00

     total cpu time spent up to now is       60.4 secs

     total energy              =   -3369.96134436 Ry
     estimated scf accuracy    <       0.00000374 Ry

     iteration #  9     ecut=    30.00 Ry     beta= 0.30
     Davidson diagonalization with overlap
     ethr =  1.46E-09,  avg # of iterations =  1.0

     negative rho (up, down):  2.810E+00 0.000E+00

     total cpu time spent up to now is       62.3 secs

     total energy              =   -3369.96134459 Ry
     estimated scf accuracy    <       0.00000138 Ry

     iteration # 10     ecut=    30.00 Ry     beta= 0.30
     Davidson diagonalization with overlap
     ethr =  5.40E-10,  avg # of iterations =  1.0

     negative rho (up, down):  2.810E+00 0.000E+00

     total cpu time spent up to now is       64.2 secs

     End of self-consistent calculation

          k = 0.0000 0.0000 0.0000 ( 16575 PWs)   bands (ev):

   -50.3519 -50.3519 -50.3344 -50.3344 -50.3344 -50.3344 -50.2471 -50.2471
   -50.2471 -50.2471 -50.2331 -50.2331 -50.2331 -50.2331 -50.2270 -50.2270
   -50.2023 -50.2023 -50.2022 -50.2022 -50.1428 -50.1428 -50.1428 -50.1428
   -50.1413 -50.1413 -50.1407 -50.0827 -50.0827 -50.0827 -50.0827 -50.0577
   -50.0577 -50.0455 -50.0455 -50.0455 -50.0455 -50.0001 -50.0001 -49.9947
   -49.9946 -49.9946 -49.9946 -49.9520 -49.9520 -49.9520 -49.9520 -49.9360
    -5.6107  -3.5554  -3.3293  -3.3293  -3.3293  -3.3293  -3.2910  -3.2910
    -3.2910  -3.2910  -3.1788  -3.0451  -3.0451  -2.5554  -2.5554  -2.0716
    -2.0716  -2.0716  -2.0716  -1.8306  -1.8306  -1.8305  -1.8305  -1.7534
    -1.2128  -1.2128  -1.2128  -1.2128  -1.1787  -1.1787  -1.1787  -1.1787
    -0.6528  -0.6528  -0.6528  -0.6527  -0.5049  -0.5049  -0.5048  -0.5048
    -0.3554  -0.3554  -0.3554  -0.3554  -0.2846  -0.2846  -0.2846  -0.2846
    -0.1505  -0.1505   0.2391   0.4452   0.4452   0.4452   0.4452   0.5092
     0.5092   0.5092   0.5092   0.6894   0.6894   0.6894   0.6894   0.7777
     0.7777   0.9262   1.2775   1.4034   1.4034   1.4034   1.4034   1.4478
     1.4479   1.7122   1.7122   1.7122   1.7122   1.7396   1.7396   1.7396
     1.7396   1.9526   1.9526   2.1052   2.8677   2.8677   3.7964   3.7965
     3.7965   3.7965   3.9651   3.9651   3.9651   3.9651   4.0537   6.2258
     6.2259   6.2259   6.2259   6.4824   6.4824   7.4813   7.8348   8.0306
     8.0306   8.0306

     occupation numbers 
     1.0000   1.0000   1.0000   1.0000   1.0000   1.0000   1.0000   1.0000
     1.0000   1.0000   1.0000   1.0000   1.0000   1.0000   1.0000   1.0000
     1.0000   1.0000   1.0000   1.0000   1.0000   1.0000   1.0000   1.0000
     1.0000   1.0000   1.0000   1.0000   1.0000   1.0000   1.0000   1.0000
     1.0000   1.0000   1.0000   1.0000   1.0000   1.0000   1.0000   1.0000
     1.0000   1.0000   1.0000   1.0000   1.0000   1.0000   1.0000   1.0000
     1.0000   1.0000   1.0000   1.0000   1.0000   1.0000   1.0000   1.0000
     1.0000   1.0000   1.0000   1.0000   1.0000   1.0000   1.0000   1.0000
     1.0000   1.0000   1.0000   1.0000   1.0000   1.0000   1.0000   1.0000
     1.0000   1.0000   1.0000   1.0000   1.0000   1.0000   1.0000   1.0000
     1.0000   1.0000   1.0000   1.0000   1.0000   1.0000   1.0000   1.0000
     1.0000   1.0000   1.0000   1.0000   1.0000   1.0000   1.0000   1.0000
     1.0000   1.0000   1.0000   1.0000   1.0000   1.0000   1.0000   1.0000
     1.0000   1.0000   1.0000   1.0000   1.0000   1.0000   1.0000   1.0000
     1.0000   1.0000   1.0000   1.0000   1.0000   1.0000   1.0000   1.0000
     1.0000   1.0000   1.0000   1.0000   1.0000   1.0000   1.0000   1.0000
     1.0000   0.0114   0.0114   0.0000   0.0000   0.0000   0.0000   0.0000
     0.0000   0.0000   0.0000   0.0000   0.0000   0.0000   0.0000   0.0000
     0.0000   0.0000   0.0000   0.0000   0.0000   0.0000   0.0000   0.0000
     0.0000   0.0000

          k = 0.0000 0.2500 0.0000 ( 16540 PWs)   bands (ev):

   -50.3439 -50.3430 -50.3310 -50.3310 -50.3197 -50.3197 -50.2873 -50.2786
   -50.2757 -50.2757 -50.2542 -50.2542 -50.2264 -50.2206 -50.2160 -50.2067
   -50.1891 -50.1836 -50.1750 -50.1714 -50.1714 -50.1494 -50.1474 -50.1433
   -50.1248 -50.1248 -50.1103 -50.0991 -50.0991 -50.0826 -50.0826 -50.0642
   -50.0614 -50.0596 -50.0417 -50.0416 -50.0289 -50.0131 -50.0131 -50.0037
   -49.9953 -49.9778 -49.9778 -49.9666 -49.9551 -49.9551 -49.9417 -49.9358
    -5.4230  -4.0921  -3.3862  -3.3800  -3.3800  -3.3026  -3.3025  -3.1356
    -3.1356  -3.0738  -2.9590  -2.9182  -2.8447  -2.5051  -2.4993  -2.3537
    -2.3490  -2.3490  -2.2340  -2.1449  -2.1078  -1.8240  -1.7373  -1.7373
    -1.6526  -1.3754  -1.3754  -1.1369  -1.1369  -0.9936  -0.9936  -0.8832
    -0.8024  -0.6524  -0.6524  -0.6238  -0.5530  -0.5530  -0.5285  -0.5284
    -0.4469  -0.4264  -0.4264  -0.3374  -0.2453  -0.2453  -0.2287  -0.0803
     0.1853   0.2483   0.2668   0.3111   0.5226   0.5226   0.6477   0.6478
     0.6478   0.6518   0.6518   0.7447   0.7644   0.8274   0.8274   1.0230
     1.0310   1.0368   1.2275   1.3231   1.3287   1.3288   1.3817   1.4249
     1.4833   1.4833   1.6939   1.7148   1.7148   1.7745   1.7764   1.8229
     1.8733   1.8734   1.9279   2.0016   2.2916   2.6318   2.8347   2.8347
     2.9387   4.0344   4.0344   4.5600   4.5600   4.5725   5.1988   5.2099
     5.9643   5.9644   6.7716   7.1885   7.3513   7.3514   7.6518   7.9698
     8.1135   8.1135

     occupation numbers 
     1.0000   1.0000   1.0000   1.0000   1.0000   1.0000   1.0000   1.0000
     1.0000   1.0000   1.0000   1.0000   1.0000   1.0000   1.0000   1.0000
     1.0000   1.0000   1.0000   1.0000   1.0000   1.0000   1.0000   1.0000
     1.0000   1.0000   1.0000   1.0000   1.0000   1.0000   1.0000   1.0000
     1.0000   1.0000   1.0000   1.0000   1.0000   1.0000   1.0000   1.0000
     1.0000   1.0000   1.0000   1.0000   1.0000   1.0000   1.0000   1.0000
     1.0000   1.0000   1.0000   1.0000   1.0000   1.0000   1.0000   1.0000
     1.0000   1.0000   1.0000   1.0000   1.0000   1.0000   1.0000   1.0000
     1.0000   1.0000   1.0000   1.0000   1.0000   1.0000   1.0000   1.0000
     1.0000   1.0000   1.0000   1.0000   1.0000   1.0000   1.0000   1.0000
     1.0000   1.0000   1.0000   1.0000   1.0000   1.0000   1.0000   1.0000
     1.0000   1.0000   1.0000   1.0000   1.0000   1.0000   1.0000   1.0000
     1.0000   1.0000   1.0000   1.0000   1.0000   1.0000   1.0000   1.0000
     1.0000   1.0000   1.0000   1.0000   1.0000   1.0000   1.0000   1.0000
     1.0000   1.0000   1.0000   1.0000   1.0000   1.0000   1.0000   1.0000
     1.0000   1.0000   1.0000   1.0000   1.0000   1.0000   0.9999   0.9866
     0.6799   0.6797   0.0774   0.0000   0.0000   0.0000   0.0000   0.0000
     0.0000   0.0000   0.0000   0.0000   0.0000   0.0000   0.0000   0.0000
     0.0000   0.0000   0.0000   0.0000   0.0000   0.0000   0.0000   0.0000
     0.0000   0.0000

          k = 0.0000-0.5000 0.0000 ( 16478 PWs)   bands (ev):

   -50.3213 -50.3213 -50.3172 -50.3172 -50.3101 -50.3100 -50.3100 -50.3100
   -50.2904 -50.2904 -50.2903 -50.2903 -50.2235 -50.2235 -50.2024 -50.2023
   -50.1724 -50.1724 -50.1635 -50.1635 -50.1572 -50.1572 -50.1304 -50.1304
   -50.1304 -50.1304 -50.0981 -50.0981 -50.0981 -50.0980 -50.0826 -50.0826
   -50.0653 -50.0653 -50.0301 -50.0301 -50.0301 -50.0300 -50.0138 -50.0138
   -49.9826 -49.9826 -49.9641 -49.9641 -49.9641 -49.9640 -49.9367 -49.9367
    -4.8846  -4.8845  -3.3444  -3.3444  -3.3444  -3.3444  -2.9058  -2.9058
    -2.8048  -2.8048  -2.7898  -2.7898  -2.7897  -2.7897  -2.7731  -2.7731
    -2.5681  -2.5680  -2.3438  -2.3437  -2.2930  -2.2930  -1.5492  -1.5492
    -1.5492  -1.5492  -1.3555  -1.3555  -0.9356  -0.9356  -0.9356  -0.9355
    -0.6947  -0.6947  -0.6947  -0.6947  -0.6814  -0.6814  -0.6814  -0.6813
    -0.6172  -0.6172  -0.4281  -0.4281   0.2166   0.2166   0.2738   0.2738
     0.2738   0.2738   0.3487   0.3487   0.3909   0.3909   0.6659   0.6659
     0.8275   0.8275   0.8275   0.8275   1.1165   1.1165   1.1250   1.1250
     1.1250   1.1250   1.2121   1.2121   1.3377   1.3377   1.4264   1.4264
     1.4266   1.4266   1.4266   1.4267   1.4417   1.4417   1.8631   1.8631
     2.1210   2.1210   2.1291   2.1291   2.2246   2.2246   2.2246   2.2246
     3.2499   3.2499   4.2728   4.2728   4.2728   4.2728   5.6023   5.6023
     6.7605   6.7605   7.5202   7.5202   7.5202   7.5202   8.1315   8.1315
     8.1608   8.1609

     occupation numbers 
     1.0000   1.0000   1.0000   1.0000   1.0000   1.0000   1.0000   1.0000
     1.0000   1.0000   1.0000   1.0000   1.0000   1.0000   1.0000   1.0000
     1.0000   1.0000   1.0000   1.0000   1.0000   1.0000   1.0000   1.0000
     1.0000   1.0000   1.0000   1.0000   1.0000   1.0000   1.0000   1.0000
     1.0000   1.0000   1.0000   1.0000   1.0000   1.0000   1.0000   1.0000
     1.0000   1.0000   1.0000   1.0000   1.0000   1.0000   1.0000   1.0000
     1.0000   1.0000   1.0000   1.0000   1.0000   1.0000   1.0000   1.0000
     1.0000   1.0000   1.0000   1.0000   1.0000   1.0000   1.0000   1.0000
     1.0000   1.0000   1.0000   1.0000   1.0000   1.0000   1.0000   1.0000
     1.0000   1.0000   1.0000   1.0000   1.0000   1.0000   1.0000   1.0000
     1.0000   1.0000   1.0000   1.0000   1.0000   1.0000   1.0000   1.0000
     1.0000   1.0000   1.0000   1.0000   1.0000   1.0000   1.0000   1.0000
     1.0000   1.0000   1.0000   1.0000   1.0000   1.0000   1.0000   1.0000
     1.0000   1.0000   1.0000   1.0000   1.0000   1.0000   1.0000   1.0000
     1.0000   1.0000   1.0000   1.0000   1.0000   1.0000   1.0000   1.0000
     1.0000   1.0000   1.0000   1.0000   1.0000   1.0000   0.7949   0.7949
     0.0000   0.0000   0.0000   0.0000   0.0000   0.0000   0.0000   0.0000
     0.0000   0.0000   0.0000   0.0000   0.0000   0.0000   0.0000   0.0000
     0.0000   0.0000   0.0000   0.0000   0.0000   0.0000   0.0000   0.0000
     0.0000   0.0000

          k = 0.2500 0.2500 0.0000 ( 16567 PWs)   bands (ev):

   -50.3383 -50.3383 -50.3306 -50.3306 -50.3148 -50.3037 -50.3036 -50.2927
   -50.2921 -50.2921 -50.2426 -50.2425 -50.2177 -50.2177 -50.2124 -50.2124
   -50.1922 -50.1922 -50.1738 -50.1604 -50.1604 -50.1512 -50.1511 -50.1504
   -50.1356 -50.1111 -50.1111 -50.1012 -50.0940 -50.0940 -50.0719 -50.0692
   -50.0584 -50.0570 -50.0570 -50.0322 -50.0243 -50.0243 -49.9989 -49.9989
   -49.9949 -49.9949 -49.9701 -49.9701 -49.9631 -49.9443 -49.9443 -49.9363
    -5.2497  -4.0373  -4.0373  -3.6688  -3.3206  -3.1388  -3.0250  -3.0250
    -2.8827  -2.8421  -2.8421  -2.8381  -2.8381  -2.6998  -2.6998  -2.4574
    -2.4574  -2.3065  -2.3065  -1.9740  -1.9740  -1.8913  -1.8913  -1.7614
    -1.7614  -1.5514  -1.5373  -1.2283  -1.2283  -0.8474  -0.8428  -0.8428
    -0.8351  -0.8351  -0.8041  -0.8041  -0.5879  -0.4552  -0.4552  -0.4084
    -0.4084  -0.3245  -0.3245  -0.2806  -0.1537  -0.1281  -0.0206  -0.0205
     0.0042   0.1954   0.2481   0.3000   0.3000   0.3228   0.3228   0.6451
     0.6451   0.9296   0.9395   0.9395   0.9756   0.9756   1.0528   1.0528
     1.1175   1.1175   1.1697   1.1697   1.2826   1.2826   1.2883   1.3670
     1.3670   1.4436   1.5244   1.5657   1.5657   1.7581   1.9022   1.9161
     1.9161   1.9857   2.0739   2.1284   2.1284   2.4511   2.4511   2.9638
     2.9638   3.6376   4.3567   4.3567   4.9493   5.3720   5.3720   5.8806
     5.8806   6.6118   6.6118   6.9113   6.9113   7.1066   7.6083   7.8203
     8.1035   8.5215

     occupation numbers 
     1.0000   1.0000   1.0000   1.0000   1.0000   1.0000   1.0000   1.0000
     1.0000   1.0000   1.0000   1.0000   1.0000   1.0000   1.0000   1.0000
     1.0000   1.0000   1.0000   1.0000   1.0000   1.0000   1.0000   1.0000
     1.0000   1.0000   1.0000   1.0000   1.0000   1.0000   1.0000   1.0000
     1.0000   1.0000   1.0000   1.0000   1.0000   1.0000   1.0000   1.0000
     1.0000   1.0000   1.0000   1.0000   1.0000   1.0000   1.0000   1.0000
     1.0000   1.0000   1.0000   1.0000   1.0000   1.0000   1.0000   1.0000
     1.0000   1.0000   1.0000   1.0000   1.0000   1.0000   1.0000   1.0000
     1.0000   1.0000   1.0000   1.0000   1.0000   1.0000   1.0000   1.0000
     1.0000   1.0000   1.0000   1.0000   1.0000   1.0000   1.0000   1.0000
     1.0000   1.0000   1.0000   1.0000   1.0000   1.0000   1.0000   1.0000
     1.0000   1.0000   1.0000   1.0000   1.0000   1.0000   1.0000   1.0000
     1.0000   1.0000   1.0000   1.0000   1.0000   1.0000   1.0000   1.0000
     1.0000   1.0000   1.0000   1.0000   1.0000   1.0000   1.0000   1.0000
     1.0000   1.0000   1.0000   1.0000   1.0000   1.0000   1.0000   1.0000
     1.0000   1.0000   1.0000   1.0000   1.0000   1.0000   0.2976   0.1550
     0.1550   0.0003   0.0000   0.0000   0.0000   0.0000   0.0000   0.0000
     0.0000   0.0000   0.0000   0.0000   0.0000   0.0000   0.0000   0.0000
     0.0000   0.0000   0.0000   0.0000   0.0000   0.0000   0.0000   0.0000
     0.0000   0.0000

          k = 0.2500-0.5000 0.0000 ( 16554 PWs)   bands (ev):

   -50.3249 -50.3249 -50.3241 -50.3240 -50.3210 -50.3210 -50.3152 -50.3152
   -50.2836 -50.2836 -50.2540 -50.2540 -50.2083 -50.2083 -50.2070 -50.2070
   -50.1937 -50.1937 -50.1745 -50.1745 -50.1503 -50.1503 -50.1374 -50.1374
   -50.1335 -50.1335 -50.1190 -50.1190 -50.0771 -50.0771 -50.0732 -50.0732
   -50.0625 -50.0625 -50.0486 -50.0485 -50.0119 -50.0119 -50.0091 -50.0091
   -49.9862 -49.9862 -49.9800 -49.9800 -49.9517 -49.9517 -49.9384 -49.9384
    -4.7562  -4.7561  -3.8886  -3.8886  -3.0843  -3.0843  -2.9929  -2.9929
    -2.8955  -2.8955  -2.7312  -2.7312  -2.6393  -2.6393  -2.5312  -2.5311
    -2.4059  -2.4059  -2.3075  -2.3074  -2.2409  -2.2409  -1.6588  -1.6588
    -1.6559  -1.6558  -1.5229  -1.5228  -1.2577  -1.2577  -0.8308  -0.8308
    -0.7477  -0.7477  -0.6787  -0.6787  -0.5471  -0.5471  -0.5414  -0.5414
    -0.3390  -0.3390  -0.2373  -0.2373  -0.2236  -0.2236   0.1611   0.1611
     0.3000   0.3000   0.3032   0.3032   0.4322   0.4322   0.4703   0.4703
     0.7009   0.7009   0.7621   0.7621   1.0772   1.0772   1.1040   1.1040
     1.1051   1.1052   1.1835   1.1835   1.2067   1.2067   1.3512   1.3512
     1.4150   1.4150   1.4876   1.4876   1.5237   1.5237   1.8366   1.8366
     2.0380   2.0380   2.0418   2.0418   2.1166   2.1166   3.1170   3.1170
     3.3901   3.3901   3.9766   3.9766   5.8027   5.8027   5.8264   5.8264
     6.3745   6.3745   6.8473   6.8473   7.2744   7.2744   7.4634   7.4635
     8.3410   8.3411

     occupation numbers 
     1.0000   1.0000   1.0000   1.0000   1.0000   1.0000   1.0000   1.0000
     1.0000   1.0000   1.0000   1.0000   1.0000   1.0000   1.0000   1.0000
     1.0000   1.0000   1.0000   1.0000   1.0000   1.0000   1.0000   1.0000
     1.0000   1.0000   1.0000   1.0000   1.0000   1.0000   1.0000   1.0000
     1.0000   1.0000   1.0000   1.0000   1.0000   1.0000   1.0000   1.0000
     1.0000   1.0000   1.0000   1.0000   1.0000   1.0000   1.0000   1.0000
     1.0000   1.0000   1.0000   1.0000   1.0000   1.0000   1.0000   1.0000
     1.0000   1.0000   1.0000   1.0000   1.0000   1.0000   1.0000   1.0000
     1.0000   1.0000   1.0000   1.0000   1.0000   1.0000   1.0000   1.0000
     1.0000   1.0000   1.0000   1.0000   1.0000   1.0000   1.0000   1.0000
     1.0000   1.0000   1.0000   1.0000   1.0000   1.0000   1.0000   1.0000
     1.0000   1.0000   1.0000   1.0000   1.0000   1.0000   1.0000   1.0000
     1.0000   1.0000   1.0000   1.0000   1.0000   1.0000   1.0000   1.0000
     1.0000   1.0000   1.0000   1.0000   1.0000   1.0000   1.0000   1.0000
     1.0000   1.0000   1.0000   1.0000   1.0000   1.0000   1.0000   1.0000
     1.0000   1.0000   1.0000   1.0000   1.0000   1.0000   0.9590   0.9590
     0.0000   0.0000   0.0000   0.0000   0.0000   0.0000   0.0000   0.0000
     0.0000   0.0000   0.0000   0.0000   0.0000   0.0000   0.0000   0.0000
     0.0000   0.0000   0.0000   0.0000   0.0000   0.0000   0.0000   0.0000
     0.0000   0.0000

          k =-0.5000-0.5000 0.0000 ( 16564 PWs)   bands (ev):

   -50.3262 -50.3262 -50.3262 -50.3262 -50.3262 -50.3262 -50.3262 -50.3262
   -50.2476 -50.2476 -50.2476 -50.2476 -50.2122 -50.2122 -50.2122 -50.2122
   -50.1735 -50.1735 -50.1734 -50.1734 -50.1734 -50.1734 -50.1734 -50.1734
   -50.1207 -50.1207 -50.1207 -50.1206 -50.0652 -50.0652 -50.0652 -50.0652
   -50.0615 -50.0615 -50.0615 -50.0615 -49.9965 -49.9965 -49.9965 -49.9965
   -49.9965 -49.9965 -49.9965 -49.9964 -49.9434 -49.9433 -49.9433 -49.9433
    -4.3981  -4.3980  -4.3980  -4.3980  -3.1196  -3.1196  -3.1196  -3.1196
    -2.6226  -2.6226  -2.6226  -2.6226  -2.6225  -2.6225  -2.6225  -2.6225
    -2.0212  -2.0211  -2.0211  -2.0211  -2.0211  -2.0211  -2.0211  -2.0210
    -1.9163  -1.9163  -1.9163  -1.9162  -0.9863  -0.9863  -0.9863  -0.9863
    -0.9043  -0.9043  -0.9043  -0.9043  -0.1393  -0.1393  -0.1393  -0.1393
    -0.1305  -0.1304  -0.1304  -0.1304  -0.1304  -0.1304  -0.1304  -0.1304
     0.0150   0.0150   0.0150   0.0151   0.3300   0.3300   0.3300   0.3300
     0.8407   0.8407   0.8407   0.8407   0.8407   0.8407   0.8407   0.8408
     0.9085   0.9085   0.9085   0.9085   1.5529   1.5529   1.5529   1.5529
     1.5529   1.5529   1.5529   1.5529   1.5682   1.5682   1.5682   1.5682
     2.1191   2.1191   2.1191   2.1192   2.3553   2.3553   2.3553   2.3553
     5.1592   5.1592   5.1592   5.1592   5.1592   5.1592   5.1592   5.1592
     6.4332   6.4332   6.4332   6.4333   7.7412   7.7412   7.7412   7.7412
     7.7412   7.7412

     occupation numbers 
     1.0000   1.0000   1.0000   1.0000   1.0000   1.0000   1.0000   1.0000
     1.0000   1.0000   1.0000   1.0000   1.0000   1.0000   1.0000   1.0000
     1.0000   1.0000   1.0000   1.0000   1.0000   1.0000   1.0000   1.0000
     1.0000   1.0000   1.0000   1.0000   1.0000   1.0000   1.0000   1.0000
     1.0000   1.0000   1.0000   1.0000   1.0000   1.0000   1.0000   1.0000
     1.0000   1.0000   1.0000   1.0000   1.0000   1.0000   1.0000   1.0000
     1.0000   1.0000   1.0000   1.0000   1.0000   1.0000   1.0000   1.0000
     1.0000   1.0000   1.0000   1.0000   1.0000   1.0000   1.0000   1.0000
     1.0000   1.0000   1.0000   1.0000   1.0000   1.0000   1.0000   1.0000
     1.0000   1.0000   1.0000   1.0000   1.0000   1.0000   1.0000   1.0000
     1.0000   1.0000   1.0000   1.0000   1.0000   1.0000   1.0000   1.0000
     1.0000   1.0000   1.0000   1.0000   1.0000   1.0000   1.0000   1.0000
     1.0000   1.0000   1.0000   1.0000   1.0000   1.0000   1.0000   1.0000
     1.0000   1.0000   1.0000   1.0000   1.0000   1.0000   1.0000   1.0000
     1.0000   1.0000   1.0000   1.0000   1.0000   1.0000   1.0000   1.0000
     1.0000   1.0000   1.0000   1.0000   1.0000   1.0000   1.0000   1.0000
     0.0000   0.0000   0.0000   0.0000   0.0000   0.0000   0.0000   0.0000
     0.0000   0.0000   0.0000   0.0000   0.0000   0.0000   0.0000   0.0000
     0.0000   0.0000   0.0000   0.0000   0.0000   0.0000   0.0000   0.0000
     0.0000   0.0000

     the Fermi energy is     1.8868 ev

!    total energy              =   -3369.96134466 Ry
     estimated scf accuracy    <       0.00000009 Ry
     smearing contrib. (-TS)   =      -0.00232763 Ry
     internal energy E=F+TS    =   -3369.95901703 Ry

     The total energy is F=E-TS. E is the sum of the following terms:
     one-electron contribution =   -9174.28935781 Ry
     hartree contribution      =    4632.96832375 Ry
     xc contribution           =    -908.10637726 Ry
     ewald contribution        =    2079.46839429 Ry

     convergence has been achieved in  10 iterations

     negative rho (up, down):  2.810E+00 0.000E+00

     Forces acting on atoms (cartesian axes, Ry/au):

     atom    1 type  1   force =     0.00000000    0.00000000    0.01944714
     atom    2 type  1   force =     0.00000000    0.00000787   -0.01947424
     atom    3 type  1   force =     0.00001738    0.00000000   -0.01948681
     atom    4 type  1   force =    -0.00000760   -0.00000760    0.01948212
     atom    5 type  1   force =     0.00000000    0.00000000    0.01948845
     atom    6 type  1   force =     0.00000000   -0.00000787   -0.01947424
     atom    7 type  1   force =     0.00000787    0.00000000   -0.01947424
     atom    8 type  1   force =    -0.00000760    0.00000760    0.01948212
     atom    9 type  1   force =     0.00000000    0.00000000    0.01948845
     atom   10 type  1   force =     0.00000000    0.00001738   -0.01948681
     atom   11 type  1   force =    -0.00001738    0.00000000   -0.01948681
     atom   12 type  1   force =     0.00000760   -0.00000760    0.01948212
     atom   13 type  1   force =     0.00000000    0.00000000    0.01949169
     atom   14 type  1   force =     0.00000000   -0.00001738   -0.01948681
     atom   15 type  1   force =    -0.00000787    0.00000000   -0.01947424
     atom   16 type  1   force =     0.00000760    0.00000760    0.01948212
     The non-local contrib.  to forces
     atom    1 type  1   force =     0.00000000    0.00000000   -0.07887051
     atom    2 type  1   force =     0.00000000    0.00001014    0.07886271
     atom    3 type  1   force =     0.00000959   -0.00000000    0.07884660
     atom    4 type  1   force =    -0.00000460   -0.00000460   -0.07885689
     atom    5 type  1   force =     0.00000000    0.00000000   -0.07885785
     atom    6 type  1   force =    -0.00000000   -0.00001014    0.07886271
     atom    7 type  1   force =     0.00001014    0.00000000    0.07886271
     atom    8 type  1   force =    -0.00000460    0.00000460   -0.07885689
     atom    9 type  1   force =     0.00000000    0.00000000   -0.07885785
     atom   10 type  1   force =     0.00000000    0.00000959    0.07884660
     atom   11 type  1   force =    -0.00000959    0.00000000    0.07884660
     atom   12 type  1   force =     0.00000460   -0.00000460   -0.07885689
     atom   13 type  1   force =     0.00000000    0.00000000   -0.07884478
     atom   14 type  1   force =    -0.00000000   -0.00000959    0.07884660
     atom   15 type  1   force =    -0.00001014    0.00000000    0.07886271
     atom   16 type  1   force =     0.00000460    0.00000460   -0.07885689
     The ionic contribution  to forces
     atom    1 type  1   force =     0.00000000   -0.00000000  -77.20428402
     atom    2 type  1   force =     0.00000000    0.00107766   77.20493888
     atom    3 type  1   force =     0.00027812    0.00000000   77.20580526
     atom    4 type  1   force =     0.00019221    0.00019221  -77.20573921
     atom    5 type  1   force =    -0.00000000   -0.00000000  -77.20530370
     atom    6 type  1   force =     0.00000000   -0.00107766   77.20493888
     atom    7 type  1   force =     0.00107766    0.00000000   77.20493888
     atom    8 type  1   force =     0.00019221   -0.00019221  -77.20573921
     atom    9 type  1   force =    -0.00000000   -0.00000000  -77.20530370
     atom   10 type  1   force =    -0.00000000    0.00027812   77.20580526
     atom   11 type  1   force =    -0.00027812   -0.00000000   77.20580526
     atom   12 type  1   force =    -0.00019221    0.00019221  -77.20573921
     atom   13 type  1   force =     0.00000000    0.00000000  -77.20512831
     atom   14 type  1   force =     0.00000000   -0.00027812   77.20580526
     atom   15 type  1   force =    -0.00107766    0.00000000   77.20493888
     atom   16 type  1   force =    -0.00019221   -0.00019221  -77.20573921
     The local contribution  to forces
     atom    1 type  1   force =    -0.00000000   -0.00000000   77.27632797
     atom    2 type  1   force =     0.00000000   -0.00117983  -77.27685272
     atom    3 type  1   force =    -0.00045538   -0.00000000  -77.27753974
     atom    4 type  1   force =    -0.00012891   -0.00012891   77.27754083
     atom    5 type  1   force =    -0.00000000    0.00000000   77.27715808
     atom    6 type  1   force =    -0.00000000    0.00117983  -77.27685272
     atom    7 type  1   force =    -0.00117983    0.00000000  -77.27685272
     atom    8 type  1   force =    -0.00012891    0.00012891   77.27754083
     atom    9 type  1   force =     0.00000000   -0.00000000   77.27715808
     atom   10 type  1   force =     0.00000000   -0.00045538  -77.27753974
     atom   11 type  1   force =     0.00045538   -0.00000000  -77.27753974
     atom   12 type  1   force =     0.00012891   -0.00012891   77.27754083
     atom   13 type  1   force =     0.00000000    0.00000000   77.27666214
     atom   14 type  1   force =     0.00000000    0.00045538  -77.27753974
     atom   15 type  1   force =     0.00117983   -0.00000000  -77.27685272
     atom   16 type  1   force =     0.00012891    0.00012891   77.27754083
     The core correction contribution to forces
     atom    1 type  1   force =     0.00000000    0.00000000    0.02637494
     atom    2 type  1   force =     0.00000000   -0.00000100   -0.02637282
     atom    3 type  1   force =     0.00000024    0.00000000   -0.02637420
     atom    4 type  1   force =    -0.00000012   -0.00000012    0.02637374
     atom    5 type  1   force =     0.00000000    0.00000000    0.02637498
     atom    6 type  1   force =    -0.00000000    0.00000100   -0.02637282
     atom    7 type  1   force =    -0.00000100    0.00000000   -0.02637282
     atom    8 type  1   force =    -0.00000012    0.00000012    0.02637374
     atom    9 type  1   force =     0.00000000    0.00000000    0.02637498
     atom   10 type  1   force =     0.00000000    0.00000024   -0.02637420
     atom   11 type  1   force =    -0.00000024    0.00000000   -0.02637420
     atom   12 type  1   force =     0.00000012   -0.00000012    0.02637374
     atom   13 type  1   force =    -0.00000000   -0.00000000    0.02637347
     atom   14 type  1   force =    -0.00000000   -0.00000024   -0.02637420
     atom   15 type  1   force =     0.00000100   -0.00000000   -0.02637282
     atom   16 type  1   force =     0.00000012    0.00000012    0.02637374
     The Hubbard contrib.    to forces
     atom    1 type  1   force =     0.00000000    0.00000000    0.00000000
     atom    2 type  1   force =     0.00000000    0.00000000    0.00000000
     atom    3 type  1   force =     0.00000000    0.00000000    0.00000000
     atom    4 type  1   force =     0.00000000    0.00000000    0.00000000
     atom    5 type  1   force =     0.00000000    0.00000000    0.00000000
     atom    6 type  1   force =     0.00000000    0.00000000    0.00000000
     atom    7 type  1   force =     0.00000000    0.00000000    0.00000000
     atom    8 type  1   force =     0.00000000    0.00000000    0.00000000
     atom    9 type  1   force =     0.00000000    0.00000000    0.00000000
     atom   10 type  1   force =     0.00000000    0.00000000    0.00000000
     atom   11 type  1   force =     0.00000000    0.00000000    0.00000000
     atom   12 type  1   force =     0.00000000    0.00000000    0.00000000
     atom   13 type  1   force =     0.00000000    0.00000000    0.00000000
     atom   14 type  1   force =     0.00000000    0.00000000    0.00000000
     atom   15 type  1   force =     0.00000000    0.00000000    0.00000000
     atom   16 type  1   force =     0.00000000    0.00000000    0.00000000
     The SCF correction term to forces
     atom    1 type  1   force =    -0.00000000    0.00000000   -0.00009952
     atom    2 type  1   force =     0.00000000    0.00010089   -0.00004858
[...]
    -4.5797  -4.5797  -4.5796  -4.5796  -3.3218  -3.3218  -3.3218  -3.3218
    -2.8135  -2.8135  -2.8135  -2.8135  -2.8134  -2.8134  -2.8134  -2.8134
    -2.2387  -2.2387  -2.2387  -2.2387  -2.2387  -2.2387  -2.2387  -2.2387
    -2.0839  -2.0839  -2.0839  -2.0839  -1.0158  -1.0158  -1.0158  -1.0158
    -0.9765  -0.9765  -0.9764  -0.9764  -0.3703  -0.3703  -0.3703  -0.3703
    -0.2048  -0.2048  -0.2047  -0.2047  -0.2047  -0.2047  -0.2047  -0.2047
     0.1002   0.1002   0.1003   0.1003   0.1161   0.1161   0.1161   0.1161
     0.8996   0.8996   0.8996   0.8996   0.8996   0.8996   0.8996   0.8996
     0.9151   0.9151   0.9151   0.9151   1.5365   1.5365   1.5365   1.5365
     1.5365   1.5365   1.5365   1.5365   1.6135   1.6135   1.6135   1.6135
     2.1814   2.1814   2.1814   2.1814   2.4015   2.4015   2.4016   2.4016
     5.1266   5.1266   5.1266   5.1266   5.1266   5.1266   5.1266   5.1266
     6.5203   6.5203   6.5203   6.5203   7.8520   7.8520   7.8520   7.8521
     7.8521   7.8521

     occupation numbers 
     1.0000   1.0000   1.0000   1.0000   1.0000   1.0000   1.0000   1.0000
     1.0000   1.0000   1.0000   1.0000   1.0000   1.0000   1.0000   1.0000
     1.0000   1.0000   1.0000   1.0000   1.0000   1.0000   1.0000   1.0000
     1.0000   1.0000   1.0000   1.0000   1.0000   1.0000   1.0000   1.0000
     1.0000   1.0000   1.0000   1.0000   1.0000   1.0000   1.0000   1.0000
     1.0000   1.0000   1.0000   1.0000   1.0000   1.0000   1.0000   1.0000
     1.0000   1.0000   1.0000   1.0000   1.0000   1.0000   1.0000   1.0000
     1.0000   1.0000   1.0000   1.0000   1.0000   1.0000   1.0000   1.0000
     1.0000   1.0000   1.0000   1.0000   1.0000   1.0000   1.0000   1.0000
     1.0000   1.0000   1.0000   1.0000   1.0000   1.0000   1.0000   1.0000
     1.0000   1.0000   1.0000   1.0000   1.0000   1.0000   1.0000   1.0000
     1.0000   1.0000   1.0000   1.0000   1.0000   1.0000   1.0000   1.0000
     1.0000   1.0000   1.0000   1.0000   1.0000   1.0000   1.0000   1.0000
     1.0000   1.0000   1.0000   1.0000   1.0000   1.0000   1.0000   1.0000
     1.0000   1.0000   1.0000   1.0000   1.0000   1.0000   1.0000   1.0000
     1.0000   1.0000   1.0000   1.0000   1.0000   1.0000   1.0000   1.0000
     0.0000   0.0000   0.0000   0.0000   0.0000   0.0000   0.0000   0.0000
     0.0000   0.0000   0.0000   0.0000   0.0000   0.0000   0.0000   0.0000
     0.0000   0.0000   0.0000   0.0000   0.0000   0.0000   0.0000   0.0000
     0.0000   0.0000

     the Fermi energy is     1.9447 ev

!    total energy              =   -3369.97312643 Ry
     estimated scf accuracy    <          8.2E-09 Ry
     smearing contrib. (-TS)   =      -0.00211100 Ry
     internal energy E=F+TS    =   -3369.97101543 Ry

     The total energy is F=E-TS. E is the sum of the following terms:
     one-electron contribution =   -9353.61801178 Ry
     hartree contribution      =    4722.09347610 Ry
     xc contribution           =    -908.42785264 Ry
     ewald contribution        =    2169.98137290 Ry

     convergence has been achieved in   9 iterations

     negative rho (up, down):  2.835E+00 0.000E+00

     Forces acting on atoms (cartesian axes, Ry/au):

     atom    1 type  1   force =     0.00000000    0.00000000   -0.00005919
     atom    2 type  1   force =     0.00000000   -0.00000130    0.00005848
     atom    3 type  1   force =    -0.00000194    0.00000000    0.00006012
     atom    4 type  1   force =     0.00000024    0.00000024   -0.00005844
     atom    5 type  1   force =     0.00000000    0.00000000   -0.00005867
     atom    6 type  1   force =     0.00000000    0.00000130    0.00005848
     atom    7 type  1   force =    -0.00000130    0.00000000    0.00005848
     atom    8 type  1   force =     0.00000024   -0.00000024   -0.00005844
     atom    9 type  1   force =     0.00000000    0.00000000   -0.00005867
     atom   10 type  1   force =     0.00000000   -0.00000194    0.00006012
     atom   11 type  1   force =     0.00000194    0.00000000    0.00006012
     atom   12 type  1   force =    -0.00000024    0.00000024   -0.00005844
     atom   13 type  1   force =     0.00000000    0.00000000   -0.00006409
     atom   14 type  1   force =     0.00000000    0.00000194    0.00006012
     atom   15 type  1   force =     0.00000130    0.00000000    0.00005848
     atom   16 type  1   force =    -0.00000024   -0.00000024   -0.00005844
     The non-local contrib.  to forces
     atom    1 type  1   force =     0.00000000    0.00000000   -0.08793033
     atom    2 type  1   force =     0.00000000   -0.00000767    0.08794264
     atom    3 type  1   force =     0.00000386   -0.00000000    0.08794489
     atom    4 type  1   force =     0.00000145    0.00000145   -0.08793401
     atom    5 type  1   force =     0.00000000    0.00000000   -0.08792760
     atom    6 type  1   force =     0.00000000    0.00000767    0.08794264
     atom    7 type  1   force =    -0.00000767    0.00000000    0.08794264
     atom    8 type  1   force =     0.00000145   -0.00000145   -0.08793401
     atom    9 type  1   force =     0.00000000    0.00000000   -0.08792760
     atom   10 type  1   force =     0.00000000    0.00000386    0.08794489
     atom   11 type  1   force =    -0.00000386    0.00000000    0.08794489
     atom   12 type  1   force =    -0.00000145    0.00000145   -0.08793401
     atom   13 type  1   force =     0.00000000    0.00000000   -0.08793598
     atom   14 type  1   force =     0.00000000   -0.00000386    0.08794489
     atom   15 type  1   force =     0.00000767    0.00000000    0.08794264
     atom   16 type  1   force =    -0.00000145   -0.00000145   -0.08793401
     The ionic contribution  to forces
     atom    1 type  1   force =     0.00000000   -0.00000000  -77.65633269
     atom    2 type  1   force =     0.00000000   -0.00113422   77.65554960
     atom    3 type  1   force =     0.00077191    0.00000000   77.65560233
     atom    4 type  1   force =     0.00010610    0.00010610  -77.65543232
     atom    5 type  1   force =     0.00000000    0.00000000  -77.65514430
     atom    6 type  1   force =    -0.00000000    0.00113422   77.65554960
     atom    7 type  1   force =    -0.00113422    0.00000000   77.65554960
     atom    8 type  1   force =     0.00010610   -0.00010610  -77.65543232
     atom    9 type  1   force =     0.00000000   -0.00000000  -77.65514430
     atom   10 type  1   force =     0.00000000    0.00077191   77.65560233
     atom   11 type  1   force =    -0.00077191    0.00000000   77.65560233
     atom   12 type  1   force =    -0.00010610    0.00010610  -77.65543232
     atom   13 type  1   force =    -0.00000000   -0.00000000  -77.65625715
     atom   14 type  1   force =    -0.00000000   -0.00077191   77.65560233
     atom   15 type  1   force =     0.00113422   -0.00000000   77.65554960
     atom   16 type  1   force =    -0.00010610   -0.00010610  -77.65543232
     The local contribution  to forces
     atom    1 type  1   force =    -0.00000000   -0.00000000   77.71558388
     atom    2 type  1   force =     0.00000000    0.00111677  -77.71489726
     atom    3 type  1   force =    -0.00074933   -0.00000000  -77.71495577
     atom    4 type  1   force =    -0.00011209   -0.00011209   77.71470678
     atom    5 type  1   force =    -0.00000000    0.00000000   77.71438184
     atom    6 type  1   force =     0.00000000   -0.00111677  -77.71489726
     atom    7 type  1   force =     0.00111677    0.00000000  -77.71489726
     atom    8 type  1   force =    -0.00011209    0.00011209   77.71470678
     atom    9 type  1   force =     0.00000000   -0.00000000   77.71438184
     atom   10 type  1   force =     0.00000000   -0.00074933  -77.71495577
     atom   11 type  1   force =     0.00074933   -0.00000000  -77.71495577
     atom   12 type  1   force =     0.00011209   -0.00011209   77.71470678
     atom   13 type  1   force =     0.00000000    0.00000000   77.71552017
     atom   14 type  1   force =     0.00000000    0.00074933  -77.71495577
     atom   15 type  1   force =    -0.00111677    0.00000000  -77.71489726
     atom   16 type  1   force =     0.00011209    0.00011209   77.71470678
     The core correction contribution to forces
     atom    1 type  1   force =     0.00000000    0.00000000    0.02857888
     atom    2 type  1   force =     0.00000000    0.00000077   -0.02857565
     atom    3 type  1   force =    -0.00000089    0.00000000   -0.02857554
     atom    4 type  1   force =    -0.00000015   -0.00000015    0.02857830
     atom    5 type  1   force =     0.00000000   -0.00000000    0.02857938
     atom    6 type  1   force =     0.00000000   -0.00000077   -0.02857565
     atom    7 type  1   force =     0.00000077    0.00000000   -0.02857565
     atom    8 type  1   force =    -0.00000015    0.00000015    0.02857830
     atom    9 type  1   force =    -0.00000000    0.00000000    0.02857938
     atom   10 type  1   force =    -0.00000000   -0.00000089   -0.02857554
     atom   11 type  1   force =     0.00000089    0.00000000   -0.02857554
     atom   12 type  1   force =     0.00000015   -0.00000015    0.02857830
     atom   13 type  1   force =     0.00000000    0.00000000    0.02857913
     atom   14 type  1   force =     0.00000000    0.00000089   -0.02857554
     atom   15 type  1   force =    -0.00000077    0.00000000   -0.02857565
     atom   16 type  1   force =     0.00000015    0.00000015    0.02857830
     The Hubbard contrib.    to forces
     atom    1 type  1   force =     0.00000000    0.00000000    0.00000000
     atom    2 type  1   force =     0.00000000    0.00000000    0.00000000
     atom    3 type  1   force =     0.00000000    0.00000000    0.00000000
     atom    4 type  1   force =     0.00000000    0.00000000    0.00000000
     atom    5 type  1   force =     0.00000000    0.00000000    0.00000000
     atom    6 type  1   force =     0.00000000    0.00000000    0.00000000
     atom    7 type  1   force =     0.00000000    0.00000000    0.00000000
     atom    8 type  1   force =     0.00000000    0.00000000    0.00000000
     atom    9 type  1   force =     0.00000000    0.00000000    0.00000000
     atom   10 type  1   force =     0.00000000    0.00000000    0.00000000
     atom   11 type  1   force =     0.00000000    0.00000000    0.00000000
     atom   12 type  1   force =     0.00000000    0.00000000    0.00000000
     atom   13 type  1   force =     0.00000000    0.00000000    0.00000000
     atom   14 type  1   force =     0.00000000    0.00000000    0.00000000
     atom   15 type  1   force =     0.00000000    0.00000000    0.00000000
     atom   16 type  1   force =     0.00000000    0.00000000    0.00000000
     The SCF correction term to forces
     atom    1 type  1   force =    -0.00000000    0.00000000    0.00005035
     atom    2 type  1   force =    -0.00000000    0.00002306    0.00004843
     atom    3 type  1   force =    -0.00002749   -0.00000000    0.00005349
     atom    4 type  1   force =     0.00000493    0.00000493    0.00003209
     atom    5 type  1   force =    -0.00000000   -0.00000000    0.00006129
     atom    6 type  1   force =    -0.00000000   -0.00002306    0.00004843
     atom    7 type  1   force =     0.00002306   -0.00000000    0.00004843
     atom    8 type  1   force =     0.00000493   -0.00000493    0.00003209
     atom    9 type  1   force =    -0.00000000    0.00000000    0.00006129
     atom   10 type  1   force =    -0.00000000   -0.00002749    0.00005349
     atom   11 type  1   force =     0.00002749    0.00000000    0.00005349
     atom   12 type  1   force =    -0.00000493    0.00000493    0.00003209
     atom   13 type  1   force =    -0.00000000    0.00000000    0.00003900
     atom   14 type  1   force =    -0.00000000    0.00002749    0.00005349
     atom   15 type  1   force =    -0.00002306   -0.00000000    0.00004843
     atom   16 type  1   force =    -0.00000493   -0.00000493    0.00003209

     Total force =     0.000237     Total SCF correction =     0.000205
     SCF correction compared to forces is large: reduce conv_thr to get better values


     Computing stress (Cartesian axis) and pressure


     negative rho (up, down):  2.835E+00 0.000E+00
          total   stress  (Ry/bohr**3)                   (kbar)     P=      -49.55
  -0.00045864   0.00000000   0.00000000          -67.47        0.00        0.00
   0.00000000  -0.00045864   0.00000000            0.00      -67.47        0.00
   0.00000000   0.00000000  -0.00009323            0.00        0.00      -13.71

     kinetic stress (kbar)  14904.48      0.00      0.00
                                0.00  14904.48      0.00
                                0.00      0.00  15152.34

     local   stress (kbar)-212523.55      0.00      0.00
                                0.00-212523.55      0.00
                                0.00      0.00 222819.14

     nonloc. stress (kbar)   -114.04      0.00      0.00
                                0.00   -114.04      0.00
                                0.00      0.00    -62.96

     hartree stress (kbar) 108828.16      0.00      0.00
                                0.00 108828.16     -0.00
                                0.00     -0.00-101233.57

     exc-cor stress (kbar)  11031.52      0.00      0.00
                                0.00  11031.52     -0.00
                                0.00     -0.00  11023.51

     corecor stress (kbar) -15198.07     -0.00     -0.00
                               -0.00 -15198.07     -0.00
                               -0.00     -0.00 -15204.77

     ewald   stress (kbar)  93004.04      0.00      0.00
                                0.00  93004.04     -0.00
                                0.00     -0.00-132507.40

     hubbard stress (kbar)      0.00      0.00      0.00
                                0.00      0.00      0.00
                                0.00      0.00      0.00

     DFT-D   stress (kbar)      0.00      0.00      0.00
                                0.00      0.00      0.00
                                0.00      0.00      0.00

     XDM     stress (kbar)      0.00      0.00      0.00
                                0.00      0.00      0.00
                                0.00      0.00      0.00

     dft-nl  stress (kbar)      0.00      0.00      0.00
                                0.00      0.00      0.00
                                0.00      0.00      0.00

     TS-vdW  stress (kbar)      0.00      0.00      0.00
                                0.00      0.00      0.00
                                0.00      0.00      0.00


     Energy error            =      2.3E-05
     Gradient error          =      6.4E-05

     bfgs converged in   5 scf cycles and   4 bfgs steps
     (criteria: energy <  1.0E-04 Ry, force <  1.0E-03 Ry/Bohr)

     End of BFGS Geometry Optimization

     Final energy   =   -3369.9731264251 Ry

     File ./surface.bfgs deleted, as requested
Begin final coordinates

ATOMIC_POSITIONS (angstrom)
Pt            0.0000000000        0.0000000000        0.0520508034
Pt            3.9767700000        1.9884023316        1.9363252279
Pt            1.9883754841        0.0000000000        1.9363238296
Pt            1.9883816177        1.9883816177        0.0520631320
Pt            0.0000000000        3.9767700000        0.0520597753
Pt            3.9767700000        5.9651376684        1.9363252279
Pt            1.9884023316        3.9767700000        1.9363252279
Pt            1.9883816177        5.9651583823        0.0520631320
Pt            3.9767700000        0.0000000000        0.0520597753
Pt            7.9535400000        1.9883754841        1.9363238296
Pt            5.9651645159       -0.0000000000        1.9363238296
Pt            5.9651583823        1.9883816177        0.0520631320
Pt            3.9767700000        3.9767700000        0.0520608880
Pt            7.9535400000        5.9651645159        1.9363238296
Pt            5.9651376684        3.9767700000        1.9363252279
Pt            5.9651583823        5.9651583823        0.0520631320
End final coordinates



     Writing output data file ./surface.save/

     init_run     :      1.47s CPU      1.53s WALL (       1 calls)
     electrons    :    126.17s CPU    129.08s WALL (       5 calls)
     update_pot   :      1.24s CPU      1.25s WALL (       4 calls)
     forces       :      3.76s CPU      3.84s WALL (       5 calls)
     stress       :     12.42s CPU     12.59s WALL (       5 calls)

     Called by init_run:
     wfcinit      :      0.77s CPU      0.79s WALL (       1 calls)
     wfcinit:atom :      0.00s CPU      0.00s WALL (       6 calls)
     wfcinit:wfcr :      0.73s CPU      0.75s WALL (       6 calls)
     potinit      :      0.13s CPU      0.13s WALL (       1 calls)
     hinit0       :      0.22s CPU      0.23s WALL (       1 calls)

     Called by electrons:
     c_bands      :    100.32s CPU    101.60s WALL (      54 calls)
     sum_band     :     18.87s CPU     19.56s WALL (      54 calls)
     v_of_rho     :      2.01s CPU      2.04s WALL (      58 calls)
     v_h          :      0.14s CPU      0.14s WALL (      58 calls)
     v_xc         :      2.18s CPU      2.23s WALL (      68 calls)
     newd         :      5.08s CPU      5.48s WALL (      58 calls)
     mix_rho      :      0.21s CPU      0.21s WALL (      54 calls)

     Called by c_bands:
     init_us_2    :      0.35s CPU      0.36s WALL (     714 calls)
     cegterg      :     97.85s CPU     99.06s WALL (     324 calls)

     Called by sum_band:
     sum_band:wei :      0.03s CPU      0.03s WALL (      54 calls)
     sum_band:loo :     12.16s CPU     12.33s WALL (      54 calls)
     sum_band:buf :      0.06s CPU      0.06s WALL (     324 calls)
     sum_band:ini :      0.15s CPU      0.15s WALL (     324 calls)
     sum_band:cal :      3.44s CPU      3.45s WALL (     324 calls)
     sum_band:bec :      0.12s CPU      0.12s WALL (     324 calls)
     addusdens    :      2.56s CPU      3.06s WALL (      54 calls)
     addusd:skk   :      0.05s CPU      0.06s WALL (      54 calls)
     addusd:dgemm :      0.57s CPU      1.02s WALL (      54 calls)
     addusd:qvan2 :      1.56s CPU      1.58s WALL (      54 calls)

     Called by *egterg:
     cdiaghg      :     16.65s CPU     16.76s WALL (    1020 calls)
     cegterg:over :      9.34s CPU      9.40s WALL (     726 calls)
     cegterg:upda :      4.79s CPU      4.84s WALL (     726 calls)
     cegterg:last :     10.11s CPU     10.18s WALL (     563 calls)
     cdiaghg:chol :      0.72s CPU      0.73s WALL (    1020 calls)
     cdiaghg:inve :      0.75s CPU      0.76s WALL (    1020 calls)
     cdiaghg:para :      1.97s CPU      1.98s WALL (    2040 calls)
     h_psi        :     49.34s CPU     50.14s WALL (    1056 calls)
     s_psi        :      4.02s CPU      4.07s WALL (    1056 calls)
     g_psi        :      0.10s CPU      0.10s WALL (     726 calls)

     Called by h_psi:
     h_psi:calbec :      9.03s CPU      9.08s WALL (    1056 calls)
     vloc_psi     :     35.62s CPU     36.29s WALL (    1056 calls)
     add_vuspsi   :      4.57s CPU      4.62s WALL (    1056 calls)

     General routines
     calbec       :     14.29s CPU     14.37s WALL (    1530 calls)
     fft          :      1.92s CPU      1.95s WALL (     874 calls)
     ffts         :      0.06s CPU      0.06s WALL (     112 calls)
     fftw         :     41.52s CPU     42.28s WALL (  285574 calls)
     interpolate  :      0.15s CPU      0.15s WALL (      58 calls)

     Parallel routines
     fft_scatt_xy :      2.60s CPU      2.64s WALL (  286560 calls)
     fft_scatt_yz :     19.56s CPU     19.91s WALL (  286560 calls)

     PWSCF        :   2m25.95s CPU   2m30.56s WALL


   This run was terminated on:  22:39:44   5Dec2021            

=------------------------------------------------------------------------------=
   JOB DONE.
=------------------------------------------------------------------------------=
