
     Program PWSCF v.6.7MaX starts on  9Dec2021 at 17:50:26 

     This program is part of the open-source Quantum ESPRESSO suite
     for quantum simulation of materials; please cite
         "P. Giannozzi et al., J. Phys.:Condens. Matter 21 395502 (2009);
         "P. Giannozzi et al., J. Phys.:Condens. Matter 29 465901 (2017);
          URL http://www.quantum-espresso.org", 
     in publications or presentations arising from this work. More details at
     http://www.quantum-espresso.org/quote

     Parallel version (MPI), running on    32 processors

     MPI processes distributed on     1 nodes
     R & G space division:  proc/nbgrp/npool/nimage =      32
     Reading input from au_surface.111.qe.in

     Current dimensions of program PWSCF are:
     Max number of different atomic species (ntypx) = 10
     Max number of k-points (npk) =  40000
     Max angular momentum in pseudopotentials (lmaxx) =  3

     Subspace diagonalization in iterative solution of the eigenvalue problem:
     one sub-group per band group will be used
     scalapack distributed-memory algorithm (size of sub-group:  5*  5 procs)

     Found symmetry operation: I + (  0.0000  0.3333  0.0000)
     This is a supercell, fractional translations are disabled

     Parallelization info
     --------------------
     sticks:   dense  smooth     PW     G-vecs:    dense   smooth      PW
     Min         180      72     19                21602     5464     768
     Max         181      74     21                21609     5467     772
     Sum        5773    2335    637               691331   174887   24635



     bravais-lattice index     =           14
     lattice parameter (alat)  =      16.7215  a.u.
     unit-cell volume          =    7882.0011 (a.u.)^3
     number of atoms/cell      =           27
     number of atomic types    =            1
     number of electrons       =       297.00
     number of Kohn-Sham states=          179
     kinetic-energy cutoff     =      30.0000  Ry
     charge density cutoff     =     300.0000  Ry
     scf convergence threshold =      1.0E-06
     mixing beta               =       0.3000
     number of iterations used =            8  plain     mixing
     energy convergence thresh.=      1.0E-04
     force convergence thresh. =      1.0E-03
     Exchange-correlation= SLA  PW   PBE  PBE
                           (   1   4   3   4   0   0   0)
     nstep                     =           50


     celldm(1)=  16.721506  celldm(2)=   1.000000  celldm(3)=   1.946613
     celldm(4)=   0.000000  celldm(5)=   0.000000  celldm(6)=  -0.500000

     crystal axes: (cart. coord. in units of alat)
               a(1) = (   1.000000   0.000000   0.000000 )  
               a(2) = (  -0.500000   0.866025   0.000000 )  
               a(3) = (   0.000000   0.000000   1.946613 )  

     reciprocal axes: (cart. coord. in units 2 pi/alat)
               b(1) = (  1.000000  0.577350 -0.000000 )  
               b(2) = (  0.000000  1.154701  0.000000 )  
               b(3) = (  0.000000 -0.000000  0.513713 )  


     PseudoPot. # 1 for Au read from file:
     /expanse/lustre/projects/csd622/tpascal/nano110/qe/pseudo/au_pbe_v1.uspp.F.UPF
     MD5 check sum: 9d7f43293ad2c663164586bc4b293ffc
     Pseudo is Ultrasoft + core correction, Zval = 11.0
     Generated by new atomic code, or converted to UPF format
     Using radial grid of  985 points,  7 beta functions with: 
                l(1) =   0
                l(2) =   0
                l(3) =   1
                l(4) =   1
                l(5) =   2
                l(6) =   2
                l(7) =   3
     Q(r) pseudized with  6 coefficients,  rinner =    1.900   1.900   1.900
                                                       1.900   1.900   1.900
                                                       1.900

     atomic species   valence    mass     pseudopotential
        Au            11.00   196.96655     Au( 1.00)

      6 Sym. Ops. (no inversion) found


                                    s                        frac. trans.

      isym =  1     identity                                     

 cryst.   s( 1) = (     1          0          0      )
                  (     0          1          0      )
                  (     0          0          1      )

 cart.    s( 1) = (  1.0000000  0.0000000  0.0000000 )
                  (  0.0000000  1.0000000  0.0000000 )
                  (  0.0000000  0.0000000  1.0000000 )


      isym =  2     120 deg rotation - cryst. axis [0,0,1]       

 cryst.   s( 2) = (     0          1          0      )
                  (    -1         -1          0      )
                  (     0          0          1      )

 cart.    s( 2) = ( -0.5000000 -0.8660254  0.0000000 )
                  (  0.8660254 -0.5000000  0.0000000 )
                  (  0.0000000  0.0000000  1.0000000 )


      isym =  3     120 deg rotation - cryst. axis [0,0,-1]      

 cryst.   s( 3) = (    -1         -1          0      )
                  (     1          0          0      )
                  (     0          0          1      )

 cart.    s( 3) = ( -0.5000000  0.8660254  0.0000000 )
                  ( -0.8660254 -0.5000000  0.0000000 )
                  (  0.0000000  0.0000000  1.0000000 )


      isym =  4     inv. 180 deg rotation - cart. axis [1,0,0]   

 cryst.   s( 4) = (    -1          0          0      )
                  (     1          1          0      )
                  (     0          0          1      )

 cart.    s( 4) = ( -1.0000000  0.0000000  0.0000000 )
                  (  0.0000000  1.0000000  0.0000000 )
                  (  0.0000000  0.0000000  1.0000000 )


      isym =  5     inv. 180 deg rotation - cryst. axis [0,1,0]  

 cryst.   s( 5) = (     1          1          0      )
                  (     0         -1          0      )
                  (     0          0          1      )

 cart.    s( 5) = (  0.5000000  0.8660254  0.0000000 )
                  (  0.8660254 -0.5000000  0.0000000 )
                  (  0.0000000  0.0000000  1.0000000 )


      isym =  6     inv. 180 deg rotation - cryst. axis [1,1,0]  

 cryst.   s( 6) = (     0         -1          0      )
                  (    -1          0          0      )
                  (     0          0          1      )

 cart.    s( 6) = (  0.5000000 -0.8660254  0.0000000 )
                  ( -0.8660254 -0.5000000  0.0000000 )
                  (  0.0000000  0.0000000  1.0000000 )


     point group C_3v (3m)  
     there are  3 classes
     the character table:

       E     2C3   3s_v 
A_1    1.00  1.00  1.00
A_2    1.00  1.00 -1.00
E      2.00 -1.00  0.00

     the symmetry operations in each class and the name of the first element:

     E        1
          identity                                               
     2C3      2    3
          120 deg rotation - cryst. axis [0,0,1]                 
     3s_v     4    5    6
          inv. 180 deg rotation - cart. axis [1,0,0]             

   Cartesian axes

     site n.     atom                  positions (alat units)
         1           Au  tau(   1) = (  -0.0000002   0.1924501   0.5443312  )
         2           Au  tau(   2) = (   0.0000000   0.0000000   0.0000000  )
         3           Au  tau(   3) = (   0.1666668   0.0962249   0.2721652  )
         4           Au  tau(   4) = (  -0.1666668   0.4811252   0.5443312  )
         5           Au  tau(   5) = (  -0.1666666   0.2886751   0.0000000  )
         6           Au  tau(   6) = (   0.0000002   0.3849000   0.2721652  )
         7           Au  tau(   7) = (  -0.3333334   0.7698003   0.5443312  )
         8           Au  tau(   8) = (  -0.3333333   0.5773501   0.0000000  )
         9           Au  tau(   9) = (  -0.1666665   0.6735751   0.2721652  )
        10           Au  tau(  10) = (   0.3333331   0.1924501   0.5443312  )
        11           Au  tau(  11) = (   0.3333333   0.0000000   0.0000000  )
        12           Au  tau(  12) = (   0.5000001   0.0962249   0.2721652  )
        13           Au  tau(  13) = (   0.1666665   0.4811252   0.5443312  )
        14           Au  tau(  14) = (   0.1666666   0.2886751   0.0000000  )
        15           Au  tau(  15) = (   0.3333334   0.3849000   0.2721652  )
        16           Au  tau(  16) = (  -0.0000002   0.7698003   0.5443312  )
        17           Au  tau(  17) = (   0.0000000   0.5773501   0.0000000  )
        18           Au  tau(  18) = (   0.1666668   0.6735751   0.2721652  )
        19           Au  tau(  19) = (   0.6666663   0.1924501   0.5443312  )
        20           Au  tau(  20) = (   0.6666665   0.0000000   0.0000000  )
        21           Au  tau(  21) = (   0.8333333   0.0962249   0.2721652  )
        22           Au  tau(  22) = (   0.4999997   0.4811252   0.5443312  )
        23           Au  tau(  23) = (   0.4999999   0.2886751   0.0000000  )
        24           Au  tau(  24) = (   0.6666667   0.3849000   0.2721652  )
        25           Au  tau(  25) = (   0.3333331   0.7698003   0.5443312  )
        26           Au  tau(  26) = (   0.3333333   0.5773501   0.0000000  )
        27           Au  tau(  27) = (   0.5000001   0.6735751   0.2721652  )

   Crystallographic axes

     site n.     atom                  positions (cryst. coord.)
         1           Au  tau(   1) = (  0.1111110  0.2222223  0.2796299  )
         2           Au  tau(   2) = (  0.0000000  0.0000000  0.0000000  )
         3           Au  tau(   3) = (  0.2222223  0.1111110  0.1398147  )
         4           Au  tau(   4) = (  0.1111110  0.5555555  0.2796299  )
         5           Au  tau(   5) = ( -0.0000000  0.3333333  0.0000000  )
         6           Au  tau(   6) = (  0.2222223  0.4444442  0.1398147  )
         7           Au  tau(   7) = (  0.1111110  0.8888888  0.2796299  )
         8           Au  tau(   8) = (  0.0000000  0.6666665  0.0000000  )
         9           Au  tau(   9) = (  0.2222223  0.7777775  0.1398147  )
        10           Au  tau(  10) = (  0.4444442  0.2222223  0.2796299  )
        11           Au  tau(  11) = (  0.3333333  0.0000000  0.0000000  )
        12           Au  tau(  12) = (  0.5555555  0.1111110  0.1398147  )
        13           Au  tau(  13) = (  0.4444442  0.5555555  0.2796299  )
        14           Au  tau(  14) = (  0.3333333  0.3333333  0.0000000  )
        15           Au  tau(  15) = (  0.5555555  0.4444442  0.1398147  )
        16           Au  tau(  16) = (  0.4444442  0.8888888  0.2796299  )
        17           Au  tau(  17) = (  0.3333333  0.6666665  0.0000000  )
        18           Au  tau(  18) = (  0.5555555  0.7777775  0.1398147  )
        19           Au  tau(  19) = (  0.7777775  0.2222223  0.2796299  )
        20           Au  tau(  20) = (  0.6666665  0.0000000  0.0000000  )
        21           Au  tau(  21) = (  0.8888888  0.1111110  0.1398147  )
        22           Au  tau(  22) = (  0.7777775  0.5555555  0.2796299  )
        23           Au  tau(  23) = (  0.6666665  0.3333333  0.0000000  )
        24           Au  tau(  24) = (  0.8888888  0.4444442  0.1398147  )
        25           Au  tau(  25) = (  0.7777775  0.8888888  0.2796299  )
        26           Au  tau(  26) = (  0.6666665  0.6666665  0.0000000  )
        27           Au  tau(  27) = (  0.8888888  0.7777775  0.1398147  )

     number of k points=     4  Gaussian smearing, width (Ry)=  0.0030
                       cart. coord. in units 2pi/alat
        k(    1) = (   0.0000000   0.0000000   0.0000000), wk =   0.1250000
        k(    2) = (   0.0000000   0.2886751   0.0000000), wk =   0.7500000
        k(    3) = (   0.0000000  -0.5773503   0.0000000), wk =   0.3750000
        k(    4) = (   0.2500000   0.4330127   0.0000000), wk =   0.7500000

                       cryst. coord.
        k(    1) = (   0.0000000   0.0000000   0.0000000), wk =   0.1250000
        k(    2) = (   0.0000000   0.2500000   0.0000000), wk =   0.7500000
        k(    3) = (   0.0000000  -0.5000000   0.0000000), wk =   0.3750000
        k(    4) = (   0.2500000   0.2500000   0.0000000), wk =   0.7500000

     Dense  grid:   691331 G-vectors     FFT dimensions: (  96,  96, 180)

     Smooth grid:   174887 G-vectors     FFT dimensions: (  60,  60, 120)

     Dynamical RAM for                 wfc:       1.87 MB

     Dynamical RAM for     wfc (w. buffer):       9.33 MB

     Dynamical RAM for           str. fact:       0.33 MB

     Dynamical RAM for           local pot:       0.00 MB

     Dynamical RAM for          nlocal pot:       7.03 MB

     Dynamical RAM for                qrad:       2.60 MB

     Dynamical RAM for          rho,v,vnew:       2.25 MB

     Dynamical RAM for               rhoin:       0.75 MB

     Dynamical RAM for            rho*nmix:       5.28 MB

     Dynamical RAM for           G-vectors:       1.28 MB

     Dynamical RAM for          h,s,v(r/c):       0.23 MB

     Dynamical RAM for          <psi|beta>:       1.84 MB

     Dynamical RAM for                 psi:       3.73 MB

     Dynamical RAM for                hpsi:       3.73 MB

     Dynamical RAM for                spsi:       3.73 MB

     Dynamical RAM for      wfcinit/wfcrot:       6.42 MB

     Dynamical RAM for           addusdens:     124.96 MB

     Dynamical RAM for          addusforce:     142.47 MB

     Dynamical RAM for         addusstress:     124.96 MB

     Estimated static dynamical RAM per process >      31.62 MB

     Estimated max dynamical RAM per process >     174.09 MB

     Estimated total dynamical RAM >       5.44 GB

     Check: negative core charge=   -0.000003

     Initial potential from superposition of free atoms

     starting charge  296.99670, renormalised to  297.00000

     negative rho (up, down):  3.262E-05 0.000E+00
     Starting wfcs are  243 randomized atomic wfcs

     total cpu time spent up to now is        2.1 secs

     Self-consistent Calculation

     iteration #  1     ecut=    30.00 Ry     beta= 0.30
     Davidson diagonalization with overlap
     ethr =  1.00E-02,  avg # of iterations =  4.2

     Threshold (ethr) on eigenvalues was too large:
     Diagonalizing with lowered threshold

     Davidson diagonalization with overlap
     ethr =  5.09E-04,  avg # of iterations =  3.5

     negative rho (up, down):  1.876E-05 0.000E+00

     total cpu time spent up to now is        8.5 secs

     total energy              =   -3104.00247210 Ry
     estimated scf accuracy    <       1.68361284 Ry

     iteration #  2     ecut=    30.00 Ry     beta= 0.30
     Davidson diagonalization with overlap
     ethr =  5.67E-04,  avg # of iterations =  2.8

     negative rho (up, down):  3.818E-05 0.000E+00

     total cpu time spent up to now is       11.7 secs

     total energy              =   -3104.09389542 Ry
     estimated scf accuracy    <       0.41368150 Ry

     iteration #  3     ecut=    30.00 Ry     beta= 0.30
     Davidson diagonalization with overlap
     ethr =  1.39E-04,  avg # of iterations =  2.5

     negative rho (up, down):  4.264E-05 0.000E+00

     total cpu time spent up to now is       15.4 secs

     total energy              =   -3104.16195589 Ry
     estimated scf accuracy    <       0.29300789 Ry

     iteration #  4     ecut=    30.00 Ry     beta= 0.30
     Davidson diagonalization with overlap
     ethr =  9.87E-05,  avg # of iterations =  1.8

     negative rho (up, down):  5.521E-05 0.000E+00

     total cpu time spent up to now is       18.4 secs

     total energy              =   -3104.19411338 Ry
     estimated scf accuracy    <       0.01298441 Ry

     iteration #  5     ecut=    30.00 Ry     beta= 0.30
     Davidson diagonalization with overlap
     ethr =  4.37E-06,  avg # of iterations =  6.2

     negative rho (up, down):  6.391E-05 0.000E+00

     total cpu time spent up to now is       22.7 secs

     total energy              =   -3104.19513559 Ry
     estimated scf accuracy    <       0.00399375 Ry

     iteration #  6     ecut=    30.00 Ry     beta= 0.30
     Davidson diagonalization with overlap
     ethr =  1.34E-06,  avg # of iterations =  2.0

     negative rho (up, down):  6.599E-05 0.000E+00

     total cpu time spent up to now is       25.8 secs

     total energy              =   -3104.19531089 Ry
     estimated scf accuracy    <       0.00023598 Ry

     iteration #  7     ecut=    30.00 Ry     beta= 0.30
     Davidson diagonalization with overlap
     ethr =  7.95E-08,  avg # of iterations =  4.2

     negative rho (up, down):  6.777E-05 0.000E+00

     total cpu time spent up to now is       30.4 secs

     total energy              =   -3104.19538724 Ry
     estimated scf accuracy    <       0.00024376 Ry

     iteration #  8     ecut=    30.00 Ry     beta= 0.30
     Davidson diagonalization with overlap
     ethr =  7.95E-08,  avg # of iterations =  1.0

     negative rho (up, down):  6.783E-05 0.000E+00

     total cpu time spent up to now is       33.2 secs

     total energy              =   -3104.19539894 Ry
     estimated scf accuracy    <       0.00002754 Ry

     iteration #  9     ecut=    30.00 Ry     beta= 0.30
     Davidson diagonalization with overlap
     ethr =  9.27E-09,  avg # of iterations =  4.0

     negative rho (up, down):  6.939E-05 0.000E+00

     total cpu time spent up to now is       37.4 secs

     total energy              =   -3104.19540998 Ry
     estimated scf accuracy    <       0.00000286 Ry

     iteration # 10     ecut=    30.00 Ry     beta= 0.30
     Davidson diagonalization with overlap
     ethr =  9.64E-10,  avg # of iterations =  3.8

     negative rho (up, down):  7.257E-05 0.000E+00

     total cpu time spent up to now is       41.8 secs

     End of self-consistent calculation

          k = 0.0000 0.0000 0.0000 ( 21879 PWs)   bands (ev):

    -5.6238  -4.0407  -3.6863  -3.5607  -3.5607  -3.5607  -3.5607  -3.5606
    -3.5606  -2.9535  -2.9535  -2.9535  -2.9535  -2.9535  -2.9535  -2.7143
    -2.7143  -2.7143  -2.7142  -2.7142  -2.7142  -2.3624  -2.3624  -2.3624
    -2.3624  -2.3624  -2.3624  -2.3550  -2.3550  -2.3197  -2.3197  -2.3197
    -2.3197  -1.8906  -1.8906  -1.8906  -1.8906  -1.5439  -1.5439  -1.5439
    -1.5439  -1.5439  -1.5439  -1.4307  -1.4307  -1.3975  -1.3304  -1.3304
    -1.3304  -1.3304  -1.3304  -1.3304  -1.1354  -1.1354  -1.0837  -1.0837
    -0.9466  -0.9133  -0.9133  -0.9132  -0.9132  -0.9132  -0.9132  -0.9022
    -0.9022  -0.8858  -0.8858  -0.8858  -0.8857  -0.8857  -0.8857  -0.7952
    -0.7952  -0.7951  -0.7951  -0.7876  -0.7876  -0.7747  -0.7747  -0.2261
    -0.2261  -0.2261  -0.2261  -0.2261  -0.2261  -0.1015  -0.1015  -0.1015
    -0.1015  -0.0310  -0.0310  -0.0310  -0.0310  -0.0310  -0.0310  -0.0291
    -0.0291   0.0606   0.0606   0.0606   0.0606   0.0606   0.0606   0.3669
     0.3669   0.3669   0.3669   0.3669   0.3669   0.4146   0.4146   0.4146
     0.4146   0.4147   0.4147   0.4752   0.4752   0.6391   0.6391   0.6392
     0.6392   0.6392   0.6392   0.6942   0.6942   0.6942   0.6942   0.6942
     0.6942   0.6993   0.6993   0.6994   0.6994   0.7921   0.7921   0.9013
     0.9013   0.9666   0.9666   0.9666   0.9666   0.9666   0.9666   1.3251
     1.3251   1.3251   1.3252   1.3252   1.3252   1.4232   3.4442   3.8390
     3.8390   3.8390   3.8391   3.8391   3.8391   5.6146   5.6146   5.8692
     5.8692   5.8693   5.8693   7.2284   7.5664   7.5664   7.5664   7.5665
     7.5665   7.5665   8.0306   8.0307   8.0580   8.0580   8.0581   8.0581
     8.3455   8.7528   9.2765

     occupation numbers 
     1.0000   1.0000   1.0000   1.0000   1.0000   1.0000   1.0000   1.0000
     1.0000   1.0000   1.0000   1.0000   1.0000   1.0000   1.0000   1.0000
     1.0000   1.0000   1.0000   1.0000   1.0000   1.0000   1.0000   1.0000
     1.0000   1.0000   1.0000   1.0000   1.0000   1.0000   1.0000   1.0000
     1.0000   1.0000   1.0000   1.0000   1.0000   1.0000   1.0000   1.0000
     1.0000   1.0000   1.0000   1.0000   1.0000   1.0000   1.0000   1.0000
     1.0000   1.0000   1.0000   1.0000   1.0000   1.0000   1.0000   1.0000
     1.0000   1.0000   1.0000   1.0000   1.0000   1.0000   1.0000   1.0000
     1.0000   1.0000   1.0000   1.0000   1.0000   1.0000   1.0000   1.0000
     1.0000   1.0000   1.0000   1.0000   1.0000   1.0000   1.0000   1.0000
     1.0000   1.0000   1.0000   1.0000   1.0000   1.0000   1.0000   1.0000
     1.0000   1.0000   1.0000   1.0000   1.0000   1.0000   1.0000   1.0000
     1.0000   1.0000   1.0000   1.0000   1.0000   1.0000   1.0000   1.0000
     1.0000   1.0000   1.0000   1.0000   1.0000   1.0000   1.0000   1.0000
     1.0000   1.0000   1.0000   1.0000   1.0000   1.0000   1.0000   1.0000
     1.0000   1.0000   1.0000   1.0000   1.0000   1.0000   1.0000   1.0000
     1.0000   1.0000   1.0000   1.0000   1.0000   1.0000   1.0000   1.0000
     1.0000   1.0000   1.0000   1.0000   1.0000   1.0000   1.0000   1.0000
     1.0000   1.0000   1.0000   1.0000   1.0000   1.0000   0.0000   0.0000
     0.0000   0.0000   0.0000   0.0000   0.0000   0.0000   0.0000   0.0000
     0.0000   0.0000   0.0000   0.0000   0.0000   0.0000   0.0000   0.0000
     0.0000   0.0000   0.0000   0.0000   0.0000   0.0000   0.0000   0.0000
     0.0000   0.0000   0.0000

          k = 0.0000 0.2887 0.0000 ( 21901 PWs)   bands (ev):

    -5.4237  -4.1092  -3.8425  -3.6426  -3.6426  -3.5110  -3.4331  -3.3165
    -3.3165  -3.0952  -2.9226  -2.9226  -2.9154  -2.8074  -2.7791  -2.7791
    -2.7040  -2.7040  -2.6777  -2.5878  -2.5878  -2.5850  -2.5787  -2.5787
    -2.5026  -2.5026  -2.3569  -2.3569  -2.2700  -2.2700  -2.1078  -2.1078
    -2.0657  -2.0184  -2.0184  -1.7511  -1.7511  -1.7511  -1.6582  -1.6582
    -1.6076  -1.6060  -1.6060  -1.5499  -1.4424  -1.4424  -1.4174  -1.3950
    -1.3713  -1.3713  -1.3157  -1.3157  -1.3120  -1.3036  -1.2711  -1.1467
    -1.1467  -1.0552  -1.0552  -1.0185  -1.0185  -1.0063  -0.9957  -0.9644
    -0.9471  -0.8965  -0.8959  -0.8959  -0.8725  -0.8725  -0.8220  -0.7794
    -0.7609  -0.7609  -0.7032  -0.7032  -0.6993  -0.6078  -0.5793  -0.5235
    -0.5235  -0.5038  -0.5037  -0.4506  -0.4477  -0.4477  -0.2261  -0.2261
    -0.1932  -0.1932  -0.1408  -0.1408  -0.1347  -0.0708  -0.0667  -0.0061
    -0.0061   0.0300   0.0300   0.0662   0.0847   0.0912   0.0912   0.1375
     0.1375   0.1490   0.1720   0.2496   0.3314   0.3314   0.3470   0.3470
     0.4159   0.4701   0.5898   0.5898   0.5982   0.5982   0.6154   0.6154
     0.6886   0.6917   0.6917   0.6961   0.7593   0.7852   0.7852   0.8181
     0.8738   0.8785   0.8785   0.8993   0.8993   0.9050   0.9268   0.9712
     0.9712   0.9741   0.9741   1.1514   1.1907   1.2314   1.2314   1.5422
     1.5422   1.6699   1.7445   2.3234   2.3234   2.6732   2.9840   3.5087
     3.5087   3.9268   4.3550   4.3550   4.6241   4.6241   5.0702   5.6510
     5.6510   6.1592   6.1592   6.2925   6.6045   7.1448   7.1448   7.1885
     7.1885   7.3692   7.7614   7.7614   7.8777   7.9912   7.9912   8.4936
     8.5850   8.6926   8.6943

     occupation numbers 
     1.0000   1.0000   1.0000   1.0000   1.0000   1.0000   1.0000   1.0000
     1.0000   1.0000   1.0000   1.0000   1.0000   1.0000   1.0000   1.0000
     1.0000   1.0000   1.0000   1.0000   1.0000   1.0000   1.0000   1.0000
     1.0000   1.0000   1.0000   1.0000   1.0000   1.0000   1.0000   1.0000
     1.0000   1.0000   1.0000   1.0000   1.0000   1.0000   1.0000   1.0000
     1.0000   1.0000   1.0000   1.0000   1.0000   1.0000   1.0000   1.0000
     1.0000   1.0000   1.0000   1.0000   1.0000   1.0000   1.0000   1.0000
     1.0000   1.0000   1.0000   1.0000   1.0000   1.0000   1.0000   1.0000
     1.0000   1.0000   1.0000   1.0000   1.0000   1.0000   1.0000   1.0000
     1.0000   1.0000   1.0000   1.0000   1.0000   1.0000   1.0000   1.0000
     1.0000   1.0000   1.0000   1.0000   1.0000   1.0000   1.0000   1.0000
     1.0000   1.0000   1.0000   1.0000   1.0000   1.0000   1.0000   1.0000
     1.0000   1.0000   1.0000   1.0000   1.0000   1.0000   1.0000   1.0000
     1.0000   1.0000   1.0000   1.0000   1.0000   1.0000   1.0000   1.0000
     1.0000   1.0000   1.0000   1.0000   1.0000   1.0000   1.0000   1.0000
     1.0000   1.0000   1.0000   1.0000   1.0000   1.0000   1.0000   1.0000
     1.0000   1.0000   1.0000   1.0000   1.0000   1.0000   1.0000   1.0000
     1.0000   1.0000   1.0000   1.0000   1.0000   1.0000   1.0000   1.0000
     1.0000   1.0000   1.0000   1.0000   1.0000   1.0000   0.0000   0.0000
     0.0000   0.0000   0.0000   0.0000   0.0000   0.0000   0.0000   0.0000
     0.0000   0.0000   0.0000   0.0000   0.0000   0.0000   0.0000   0.0000
     0.0000   0.0000   0.0000   0.0000   0.0000   0.0000   0.0000   0.0000
     0.0000   0.0000   0.0000

          k = 0.0000-0.5774 0.0000 ( 21828 PWs)   bands (ev):

    -4.8628  -4.8628  -3.6461  -3.6461  -3.4390  -3.3278  -3.3278  -3.1559
    -3.0631  -3.0631  -2.9209  -2.9209  -2.9209  -2.9209  -2.8388  -2.7742
    -2.7742  -2.7742  -2.7742  -2.6675  -2.6054  -2.6054  -2.5558  -2.5558
    -2.5557  -2.5557  -2.2894  -2.2894  -2.2052  -2.2052  -2.0634  -2.0634
    -2.0634  -2.0634  -1.8142  -1.8141  -1.7142  -1.7142  -1.7142  -1.7142
    -1.6817  -1.6817  -1.6335  -1.6078  -1.6078  -1.4977  -1.4977  -1.4928
    -1.4135  -1.4135  -1.4135  -1.4135  -1.3517  -1.3517  -1.3419  -1.3419
    -1.2439  -1.2439  -1.1989  -1.1989  -1.1988  -1.1988  -1.0430  -1.0430
    -1.0419  -0.9895  -0.9894  -0.9017  -0.9017  -0.8127  -0.8127  -0.8127
    -0.8127  -0.8016  -0.8015  -0.7692  -0.7692  -0.6711  -0.6711  -0.4314
    -0.4298  -0.4298  -0.3133  -0.3132  -0.2936  -0.2936  -0.2936  -0.2936
    -0.2739  -0.2739  -0.1205  -0.1204  -0.1204  -0.1204  -0.0798  -0.0798
    -0.0798  -0.0798  -0.0760  -0.0760  -0.0532  -0.0532   0.0659   0.0761
     0.0761   0.2277   0.2277   0.2601   0.2601   0.2601   0.2601   0.2829
     0.4417   0.4418   0.5415   0.5415   0.5415   0.5415   0.5877   0.5877
     0.6191   0.6191   0.7177   0.7177   0.7821   0.8324   0.8324   0.8942
     0.8942   0.8942   0.8942   0.9147   0.9147   0.9167   0.9649   1.0983
     1.0983   1.0984   1.0984   1.2557   1.2557   1.3252   1.3538   2.3247
     2.3248   2.8698   2.8698   2.8698   2.8698   3.2370   3.4249   3.4249
     3.9467   3.9467   3.9467   3.9467   4.0626   4.3507   4.9987   4.9987
     5.9621   5.9621   5.9621   5.9621   6.2151   6.8572   6.8573   6.8573
     6.8573   6.9477   6.9987   6.9987   7.7040   7.7906   7.7906   8.2321
     8.2321   8.2321   8.2321

     occupation numbers 
     1.0000   1.0000   1.0000   1.0000   1.0000   1.0000   1.0000   1.0000
     1.0000   1.0000   1.0000   1.0000   1.0000   1.0000   1.0000   1.0000
     1.0000   1.0000   1.0000   1.0000   1.0000   1.0000   1.0000   1.0000
     1.0000   1.0000   1.0000   1.0000   1.0000   1.0000   1.0000   1.0000
     1.0000   1.0000   1.0000   1.0000   1.0000   1.0000   1.0000   1.0000
     1.0000   1.0000   1.0000   1.0000   1.0000   1.0000   1.0000   1.0000
     1.0000   1.0000   1.0000   1.0000   1.0000   1.0000   1.0000   1.0000
     1.0000   1.0000   1.0000   1.0000   1.0000   1.0000   1.0000   1.0000
     1.0000   1.0000   1.0000   1.0000   1.0000   1.0000   1.0000   1.0000
     1.0000   1.0000   1.0000   1.0000   1.0000   1.0000   1.0000   1.0000
     1.0000   1.0000   1.0000   1.0000   1.0000   1.0000   1.0000   1.0000
     1.0000   1.0000   1.0000   1.0000   1.0000   1.0000   1.0000   1.0000
     1.0000   1.0000   1.0000   1.0000   1.0000   1.0000   1.0000   1.0000
     1.0000   1.0000   1.0000   1.0000   1.0000   1.0000   1.0000   1.0000
     1.0000   1.0000   1.0000   1.0000   1.0000   1.0000   1.0000   1.0000
     1.0000   1.0000   1.0000   1.0000   1.0000   1.0000   1.0000   1.0000
     1.0000   1.0000   1.0000   1.0000   1.0000   1.0000   1.0000   1.0000
     1.0000   1.0000   1.0000   1.0000   1.0000   1.0000   1.0000   1.0000
     1.0000   0.1487   0.1486   0.1486   0.1485   0.0000   0.0000   0.0000
     0.0000   0.0000   0.0000   0.0000   0.0000   0.0000   0.0000   0.0000
     0.0000   0.0000   0.0000   0.0000   0.0000   0.0000   0.0000   0.0000
     0.0000   0.0000   0.0000   0.0000   0.0000   0.0000   0.0000   0.0000
     0.0000   0.0000   0.0000

          k = 0.2500 0.4330 0.0000 ( 21853 PWs)   bands (ev):

    -5.0405  -4.3582  -4.3581  -3.4765  -3.2978  -3.2978  -3.1910  -3.0619
    -3.0618  -3.0393  -3.0393  -2.9361  -2.9360  -2.9316  -2.8238  -2.7700
    -2.7700  -2.7087  -2.7087  -2.6595  -2.6594  -2.6288  -2.6279  -2.5816
    -2.5016  -2.5016  -2.4444  -2.4443  -2.2946  -2.1259  -1.9944  -1.9944
    -1.9615  -1.9615  -1.9125  -1.7788  -1.7634  -1.7634  -1.7535  -1.7440
    -1.7282  -1.7281  -1.6439  -1.6439  -1.5540  -1.5540  -1.5012  -1.4823
    -1.4188  -1.4188  -1.4182  -1.3951  -1.3951  -1.3106  -1.2852  -1.1679
    -1.1679  -1.1358  -1.1358  -1.1292  -1.1292  -1.0835  -1.0525  -1.0525
    -1.0089  -0.9964  -0.9633  -0.9306  -0.9305  -0.9019  -0.8386  -0.8324
    -0.8324  -0.7694  -0.7694  -0.7050  -0.6993  -0.6925  -0.6209  -0.6209
    -0.5830  -0.5830  -0.5278  -0.5278  -0.5206  -0.4376  -0.4376  -0.2766
    -0.2005  -0.1399  -0.1329  -0.1209  -0.1209  -0.0804  -0.0804  -0.0502
    -0.0502  -0.0231  -0.0211  -0.0211  -0.0122  -0.0122   0.0205   0.1469
     0.1469   0.1618   0.1875   0.1926   0.1927   0.2716   0.3251   0.3251
     0.4414   0.4415   0.4515   0.4789   0.6310   0.6310   0.7000   0.7431
     0.7466   0.7466   0.7746   0.7746   0.8013   0.8449   0.8450   0.8606
     0.8695   0.8695   0.8814   0.8814   0.8926   0.9638   0.9638   1.0138
     1.0138   1.0275   1.1024   1.1621   1.1621   1.6420   1.6420   2.1647
     2.3598   2.3598   2.7539   2.7539   2.8634   2.9767   2.9767   3.9408
     3.9742   3.9742   4.4646   4.4646   4.4843   4.6827   4.7382   5.2610
     5.2610   5.5731   5.8368   5.8368   5.8676   6.3728   6.3979   6.3980
     6.9180   6.9180   7.5343   7.6502   8.1519   8.1897   8.2125   8.2125
     8.2668   8.2669   8.5615

     occupation numbers 
     1.0000   1.0000   1.0000   1.0000   1.0000   1.0000   1.0000   1.0000
     1.0000   1.0000   1.0000   1.0000   1.0000   1.0000   1.0000   1.0000
     1.0000   1.0000   1.0000   1.0000   1.0000   1.0000   1.0000   1.0000
     1.0000   1.0000   1.0000   1.0000   1.0000   1.0000   1.0000   1.0000
     1.0000   1.0000   1.0000   1.0000   1.0000   1.0000   1.0000   1.0000
     1.0000   1.0000   1.0000   1.0000   1.0000   1.0000   1.0000   1.0000
     1.0000   1.0000   1.0000   1.0000   1.0000   1.0000   1.0000   1.0000
     1.0000   1.0000   1.0000   1.0000   1.0000   1.0000   1.0000   1.0000
     1.0000   1.0000   1.0000   1.0000   1.0000   1.0000   1.0000   1.0000
     1.0000   1.0000   1.0000   1.0000   1.0000   1.0000   1.0000   1.0000
     1.0000   1.0000   1.0000   1.0000   1.0000   1.0000   1.0000   1.0000
     1.0000   1.0000   1.0000   1.0000   1.0000   1.0000   1.0000   1.0000
     1.0000   1.0000   1.0000   1.0000   1.0000   1.0000   1.0000   1.0000
     1.0000   1.0000   1.0000   1.0000   1.0000   1.0000   1.0000   1.0000
     1.0000   1.0000   1.0000   1.0000   1.0000   1.0000   1.0000   1.0000
     1.0000   1.0000   1.0000   1.0000   1.0000   1.0000   1.0000   1.0000
     1.0000   1.0000   1.0000   1.0000   1.0000   1.0000   1.0000   1.0000
     1.0000   1.0000   1.0000   1.0000   1.0000   1.0000   1.0000   1.0000
     1.0000   1.0000   0.9985   0.9985   0.2058   0.0000   0.0000   0.0000
     0.0000   0.0000   0.0000   0.0000   0.0000   0.0000   0.0000   0.0000
     0.0000   0.0000   0.0000   0.0000   0.0000   0.0000   0.0000   0.0000
     0.0000   0.0000   0.0000   0.0000   0.0000   0.0000   0.0000   0.0000
     0.0000   0.0000   0.0000

     the Fermi energy is     2.8397 ev

!    total energy              =   -3104.19541072 Ry
     estimated scf accuracy    <       0.00000089 Ry
     smearing contrib. (-TS)   =      -0.00120560 Ry
     internal energy E=F+TS    =   -3104.19420512 Ry

     The total energy is F=E-TS. E is the sum of the following terms:
     one-electron contribution =   -8574.70515397 Ry
     hartree contribution      =    4525.56845960 Ry
     xc contribution           =   -1678.96396685 Ry
     ewald contribution        =    2623.90645611 Ry

     convergence has been achieved in  10 iterations

     negative rho (up, down):  7.257E-05 0.000E+00

     Forces acting on atoms (cartesian axes, Ry/au):

     atom    1 type  1   force =    -0.00000000   -0.00002247    0.00305110
     atom    2 type  1   force =    -0.00000000   -0.00000000   -0.00293338
     atom    3 type  1   force =     0.00001651    0.00000953   -0.00010304
     atom    4 type  1   force =    -0.00002921   -0.00001687    0.00305214
     atom    5 type  1   force =    -0.00002939   -0.00000362   -0.00293388
     atom    6 type  1   force =     0.00000000   -0.00002485   -0.00010800
     atom    7 type  1   force =    -0.00001946    0.00001124    0.00305110
     atom    8 type  1   force =    -0.00001783   -0.00002365   -0.00293388
     atom    9 type  1   force =    -0.00002152    0.00001243   -0.00010800
     atom   10 type  1   force =     0.00000988    0.00000571    0.00302804
     atom   11 type  1   force =     0.00001157    0.00002726   -0.00293388
     atom   12 type  1   force =     0.00000000    0.00004066   -0.00012472
     atom   13 type  1   force =     0.00002921   -0.00001687    0.00305214
     atom   14 type  1   force =     0.00002939   -0.00000362   -0.00293388
     atom   15 type  1   force =     0.00003521   -0.00002033   -0.00012472
     atom   16 type  1   force =     0.00000000    0.00003373    0.00305214
     atom   17 type  1   force =     0.00000000    0.00000000   -0.00294065
     atom   18 type  1   force =     0.00002152    0.00001243   -0.00010800
     atom   19 type  1   force =    -0.00000988    0.00000571    0.00302804
     atom   20 type  1   force =    -0.00001157    0.00002726   -0.00293388
     atom   21 type  1   force =    -0.00001651    0.00000953   -0.00010304
     atom   22 type  1   force =     0.00000000   -0.00001141    0.00302804
     atom   23 type  1   force =     0.00000000    0.00000000   -0.00290923
     atom   24 type  1   force =    -0.00003521   -0.00002033   -0.00012472
     atom   25 type  1   force =     0.00001946    0.00001124    0.00305110
     atom   26 type  1   force =     0.00001783   -0.00002365   -0.00293388
     atom   27 type  1   force =     0.00000000   -0.00001907   -0.00010304
     The non-local contrib.  to forces
     atom    1 type  1   force =     0.00000000   -0.00001335   -0.03779266
     atom    2 type  1   force =     0.00000000    0.00000000    0.03776340
     atom    3 type  1   force =     0.00001113    0.00000642   -0.00011841
     atom    4 type  1   force =    -0.00001929   -0.00001114   -0.03779250
     atom    5 type  1   force =    -0.00001634   -0.00000215    0.03776688
     atom    6 type  1   force =     0.00000000   -0.00001731   -0.00011772
     atom    7 type  1   force =    -0.00001156    0.00000668   -0.03779266
     atom    8 type  1   force =    -0.00001003   -0.00001307    0.03776688
     atom    9 type  1   force =    -0.00001499    0.00000865   -0.00011772
     atom   10 type  1   force =     0.00000529    0.00000305   -0.03780484
     atom   11 type  1   force =     0.00000630    0.00001522    0.03776688
     atom   12 type  1   force =    -0.00000000    0.00002743   -0.00012734
     atom   13 type  1   force =     0.00001929   -0.00001114   -0.03779250
     atom   14 type  1   force =     0.00001634   -0.00000215    0.03776688
     atom   15 type  1   force =     0.00002375   -0.00001371   -0.00012734
     atom   16 type  1   force =     0.00000000    0.00002228   -0.03779250
     atom   17 type  1   force =     0.00000000    0.00000000    0.03776994
     atom   18 type  1   force =     0.00001499    0.00000865   -0.00011772
     atom   19 type  1   force =    -0.00000529    0.00000305   -0.03780484
     atom   20 type  1   force =    -0.00000630    0.00001522    0.03776688
     atom   21 type  1   force =    -0.00001113    0.00000642   -0.00011841
     atom   22 type  1   force =     0.00000000   -0.00000611   -0.03780484
     atom   23 type  1   force =     0.00000000    0.00000000    0.03778063
     atom   24 type  1   force =    -0.00002375   -0.00001371   -0.00012734
     atom   25 type  1   force =     0.00001156    0.00000668   -0.03779266
     atom   26 type  1   force =     0.00001003   -0.00001307    0.03776688
     atom   27 type  1   force =     0.00000000   -0.00001285   -0.00011841
     The ionic contribution  to forces
     atom    1 type  1   force =    -0.00001458   -0.00003005   65.17489701
     atom    2 type  1   force =    -0.00001179   -0.00002451  -65.17492847
     atom    3 type  1   force =    -0.00002092   -0.00003108    0.00004770
     atom    4 type  1   force =    -0.00001550   -0.00000760   65.17489823
     atom    5 type  1   force =    -0.00001235   -0.00000844  -65.17493720
     atom    6 type  1   force =    -0.00002146   -0.00000859    0.00004122
     atom    7 type  1   force =    -0.00001606    0.00000847   65.17488950
     atom    8 type  1   force =    -0.00001326    0.00001401  -65.17493598
     atom    9 type  1   force =    -0.00002199    0.00001389    0.00003474
     atom   10 type  1   force =     0.00000111   -0.00002162   65.17490536
     atom   11 type  1   force =    -0.00000213   -0.00002109  -65.17493598
     atom   12 type  1   force =     0.00000302   -0.00001829    0.00004460
     atom   13 type  1   force =     0.00000019    0.00000083   65.17490658
     atom   14 type  1   force =    -0.00000268   -0.00000502  -65.17494471
     atom   15 type  1   force =     0.00000249    0.00000420    0.00003812
     atom   16 type  1   force =    -0.00000036    0.00001690   65.17489786
     atom   17 type  1   force =    -0.00000360    0.00001742  -65.17494349
     atom   18 type  1   force =     0.00000196    0.00002668    0.00003164
     atom   19 type  1   force =     0.00002007   -0.00001173   65.17490279
     atom   20 type  1   force =     0.00001777   -0.00001066  -65.17493720
     atom   21 type  1   force =     0.00001346   -0.00001398    0.00004615
     atom   22 type  1   force =     0.00001916    0.00001072   65.17490401
     atom   23 type  1   force =     0.00001722    0.00000541  -65.17494593
     atom   24 type  1   force =     0.00001293    0.00000850    0.00003967
     atom   25 type  1   force =     0.00001860    0.00002679   65.17489528
     atom   26 type  1   force =     0.00001630    0.00002786  -65.17494471
     atom   27 type  1   force =     0.00001240    0.00003099    0.00003319
     The local contribution  to forces
     atom    1 type  1   force =     0.00003492    0.00010699  -65.11348825
     atom    2 type  1   force =     0.00000000   -0.00000000   65.11362375
     atom    3 type  1   force =    -0.00004372    0.00001424    0.00038823
     atom    4 type  1   force =     0.00013476    0.00006482  -65.11349508
     atom    5 type  1   force =     0.00008158    0.00004478   65.11363869
     atom    6 type  1   force =    -0.00003419    0.00015453    0.00042993
     atom    7 type  1   force =     0.00012137   -0.00004273  -65.11348825
     atom    8 type  1   force =     0.00005589    0.00008928   65.11363869
     atom    9 type  1   force =     0.00005935   -0.00000750    0.00042993
     atom   10 type  1   force =     0.00003922   -0.00001768  -65.11344017
     atom   11 type  1   force =    -0.00000201   -0.00009304   65.11363869
     atom   12 type  1   force =    -0.00001101   -0.00011023    0.00045243
     atom   13 type  1   force =    -0.00006491    0.00006482  -65.11349508
     atom   14 type  1   force =    -0.00008158    0.00004478   65.11363869
     atom   15 type  1   force =    -0.00013516    0.00010480    0.00045243
     atom   16 type  1   force =     0.00003493   -0.00010809  -65.11349508
     atom   17 type  1   force =     0.00000000    0.00002734   65.11369409
     atom   18 type  1   force =    -0.00012774   -0.00000750    0.00042993
     atom   19 type  1   force =     0.00007799   -0.00001768  -65.11344017
     atom   20 type  1   force =     0.00004937   -0.00009304   65.11363869
     atom   21 type  1   force =     0.00002170    0.00001424    0.00038823
     atom   22 type  1   force =     0.00005861    0.00001589  -65.11344017
     atom   23 type  1   force =     0.00002368    0.00001367   65.11357874
     atom   24 type  1   force =     0.00011314    0.00010480    0.00045243
     atom   25 type  1   force =    -0.00005152   -0.00004273  -65.11348825
     atom   26 type  1   force =    -0.00005589    0.00008928   65.11363869
     atom   27 type  1   force =    -0.00001101    0.00007090    0.00038823
     The core correction contribution to forces
     atom    1 type  1   force =     0.00001114    0.00000337   -0.02132016
     atom    2 type  1   force =    -0.00000000   -0.00000000    0.02133653
     atom    3 type  1   force =    -0.00000474    0.00001012    0.00004012
     atom    4 type  1   force =     0.00001281    0.00000326   -0.02132034
     atom    5 type  1   force =    -0.00000289    0.00000713    0.02133638
     atom    6 type  1   force =    -0.00001113    0.00001565    0.00003819
     atom    7 type  1   force =     0.00001207    0.00000175   -0.02132016
     atom    8 type  1   force =    -0.00000282    0.00000702    0.02133638
     atom    9 type  1   force =    -0.00001069    0.00001489    0.00003819
     atom   10 type  1   force =     0.00001795   -0.00000249   -0.02131747
     atom   11 type  1   force =     0.00000762   -0.00000107    0.02133638
     atom   12 type  1   force =    -0.00000358    0.00000948    0.00004218
     atom   13 type  1   force =     0.00000947    0.00000326   -0.02132035
     atom   14 type  1   force =     0.00000289    0.00000713    0.02133638
     atom   15 type  1   force =    -0.00000471    0.00001144    0.00004218
     atom   16 type  1   force =     0.00001114    0.00000036   -0.02132035
     atom   17 type  1   force =    -0.00000000    0.00000872    0.02133410
     atom   18 type  1   force =    -0.00001157    0.00001489    0.00003819
     atom   19 type  1   force =     0.00001943   -0.00000249   -0.02131747
     atom   20 type  1   force =     0.00000748   -0.00000107    0.02133638
     atom   21 type  1   force =    -0.00000242    0.00001012    0.00004012
     atom   22 type  1   force =     0.00001869   -0.00000122   -0.02131747
     atom   23 type  1   force =     0.00000755    0.00000436    0.02133258
     atom   24 type  1   force =    -0.00000245    0.00001144    0.00004218
     atom   25 type  1   force =     0.00001021    0.00000175   -0.02132016
     atom   26 type  1   force =     0.00000282    0.00000702    0.02133638
     atom   27 type  1   force =    -0.00000358    0.00001212    0.00004012
     The Hubbard contrib.    to forces
     atom    1 type  1   force =     0.00000000    0.00000000    0.00000000
     atom    2 type  1   force =     0.00000000    0.00000000    0.00000000
     atom    3 type  1   force =     0.00000000    0.00000000    0.00000000
     atom    4 type  1   force =     0.00000000    0.00000000    0.00000000
     atom    5 type  1   force =     0.00000000    0.00000000    0.00000000
     atom    6 type  1   force =     0.00000000    0.00000000    0.00000000
     atom    7 type  1   force =     0.00000000    0.00000000    0.00000000
     atom    8 type  1   force =     0.00000000    0.00000000    0.00000000
     atom    9 type  1   force =     0.00000000    0.00000000    0.00000000
     atom   10 type  1   force =     0.00000000    0.00000000    0.00000000
     atom   11 type  1   force =     0.00000000    0.00000000    0.00000000
     atom   12 type  1   force =     0.00000000    0.00000000    0.00000000
     atom   13 type  1   force =     0.00000000    0.00000000    0.00000000
     atom   14 type  1   force =     0.00000000    0.00000000    0.00000000
     atom   15 type  1   force =     0.00000000    0.00000000    0.00000000
     atom   16 type  1   force =     0.00000000    0.00000000    0.00000000
     atom   17 type  1   force =     0.00000000    0.00000000    0.00000000
     atom   18 type  1   force =     0.00000000    0.00000000    0.00000000
     atom   19 type  1   force =     0.00000000    0.00000000    0.00000000
     atom   20 type  1   force =     0.00000000    0.00000000    0.00000000
     atom   21 type  1   force =     0.00000000    0.00000000    0.00000000
     atom   22 type  1   force =     0.00000000    0.00000000    0.00000000
     atom   23 type  1   force =     0.00000000    0.00000000    0.00000000
     atom   24 type  1   force =     0.00000000    0.00000000    0.00000000
     atom   25 type  1   force =     0.00000000    0.00000000    0.00000000
     atom   26 type  1   force =     0.00000000    0.00000000    0.00000000
     atom   27 type  1   force =     0.00000000    0.00000000    0.00000000
     The SCF correction term to forces
     atom    1 type  1   force =    -0.00000003   -0.00008412    0.00066108
     atom    2 type  1   force =     0.00000002    0.00000004   -0.00082576
     atom    3 type  1   force =     0.00006331    0.00003652   -0.00055249
     atom    4 type  1   force =    -0.00010169   -0.00005869    0.00066202
     atom    5 type  1   force =    -0.00011553   -0.00001613   -0.00083370
     atom    6 type  1   force =     0.00000008   -0.00009961   -0.00059144
     atom    7 type  1   force =    -0.00007290    0.00004205    0.00066109
     atom    8 type  1   force =    -0.00007170   -0.00009208   -0.00083370
     atom    9 type  1   force =    -0.00008613    0.00004968   -0.00059143
     atom   10 type  1   force =     0.00003725    0.00002160    0.00058931
     atom   11 type  1   force =     0.00004380    0.00010817   -0.00083370
     atom   12 type  1   force =     0.00000001    0.00016908   -0.00062996
     atom   13 type  1   force =     0.00010161   -0.00005871    0.00066201
     atom   14 type  1   force =     0.00011555   -0.00001613   -0.00083368
     atom   15 type  1   force =     0.00014646   -0.00008461   -0.00062995
     atom   16 type  1   force =    -0.00000005    0.00011735    0.00066202
     atom   17 type  1   force =     0.00000001   -0.00000007   -0.00089245
     atom   18 type  1   force =     0.00008626    0.00004966   -0.00059143
     atom   19 type  1   force =    -0.00003746    0.00002159    0.00058931
     atom   20 type  1   force =    -0.00004389    0.00010815   -0.00083370
     atom   21 type  1   force =    -0.00006326    0.00003650   -0.00055249
     atom   22 type  1   force =    -0.00000012   -0.00004312    0.00058931
     atom   23 type  1   force =    -0.00000006   -0.00000003   -0.00075241
     atom   24 type  1   force =    -0.00014645   -0.00008461   -0.00062995
     atom   25 type  1   force =     0.00007280    0.00004202    0.00066108
     atom   26 type  1   force =     0.00007169   -0.00009210   -0.00083368
     atom   27 type  1   force =    -0.00000000   -0.00007315   -0.00055247

     Total force =     0.012684     Total SCF correction =     0.003650
     SCF correction compared to forces is large: reduce conv_thr to get better values


     Computing stress (Cartesian axis) and pressure


     negative rho (up, down):  7.257E-05 0.000E+00
          total   stress  (Ry/bohr**3)                   (kbar)     P=      -26.13
  -0.00027809  -0.00000000   0.00000000          -40.91       -0.00        0.00
  -0.00000000  -0.00027809  -0.00000000           -0.00      -40.91       -0.00
   0.00000000  -0.00000000   0.00002333            0.00       -0.00        3.43

     kinetic stress (kbar)   8408.47     -0.00      0.00
                               -0.00   8408.47      0.00
                                0.00      0.00   8538.17

     local   stress (kbar)-153471.52     -0.00     -0.00
                               -0.00-153471.52      0.00
                               -0.00      0.00 174236.00

     nonloc. stress (kbar)  -5353.51      0.00      0.00
                                0.00  -5353.51      0.00
                                0.00      0.00  -5354.78

     hartree stress (kbar)  81320.63      0.00      0.00
                                0.00  81320.63     -0.00
                                0.00     -0.00 -78178.69

     exc-cor stress (kbar)  21857.37      0.00      0.00
                                0.00  21857.37     -0.00
                                0.00     -0.00  21850.61

     corecor stress (kbar) -25216.48     -0.00      0.00
                               -0.00 -25216.48     -0.00
                                0.00     -0.00 -25230.68

     ewald   stress (kbar)  72414.13      0.00      0.00
                                0.00  72414.13     -0.00
                                0.00     -0.00 -95857.19

     hubbard stress (kbar)      0.00      0.00      0.00
                                0.00      0.00      0.00
                                0.00      0.00      0.00

     DFT-D   stress (kbar)      0.00      0.00      0.00
                                0.00      0.00      0.00
                                0.00      0.00      0.00

     XDM     stress (kbar)      0.00      0.00      0.00
                                0.00      0.00      0.00
                                0.00      0.00      0.00

     dft-nl  stress (kbar)      0.00      0.00      0.00
                                0.00      0.00      0.00
                                0.00      0.00      0.00

     TS-vdW  stress (kbar)      0.00      0.00      0.00
                                0.00      0.00      0.00
                                0.00      0.00      0.00



     BFGS Geometry Optimization
     Energy error            =      0.0E+00
     Gradient error          =      3.1E-03

     number of scf cycles    =   1
     number of bfgs steps    =   0

     energy   new            =   -3104.1954107207 Ry

     new trust radius        =       0.0030523251 bohr
     new conv_thr            =       0.0000010000 Ry


ATOMIC_POSITIONS (angstrom)
Au           -0.0000014748        1.7029101377        4.8182056502
Au           -0.0000000000       -0.0000000000       -0.0015522772
Au            1.4747832129        0.8514647821        2.4082373978
Au           -1.4747899347        4.2572948684        4.8182061972
Au           -1.4747885541        2.5543798522       -0.0015525422
Au            0.0000014748        3.4058283520        2.4082347729
Au           -2.9495577726        6.8116915052        4.8182056502
Au           -2.9495554341        5.1087510177       -0.0015525422
Au           -1.4747829140        5.9602298437        2.4082347729
Au            2.9495497551        1.7029250480        4.8181934432
Au            2.9495521200        0.0000144269       -0.0015525422
Au            4.4243204748        0.8514812529        2.4082259235
Au            1.4747869851        4.2572948684        4.8182061972
Au            1.4747885541        2.5543798522       -0.0015525422
Au            2.9495661081        3.4058307448        2.4082259235
Au           -0.0000014748        6.8117034113        4.8182061972
Au            0.0000000000        5.1087635313       -0.0015561233
Au            1.4747858636        5.9602298437        2.4082347729
Au            5.8990852953        1.7029250480        4.8181934432
Au            5.8990858800        0.0000144269       -0.0015525422
Au            7.3738577367        0.8514647821        2.4082373978
Au            4.4243175252        4.2572977552        4.8181934432
Au            4.4243190000        2.5543817656       -0.0015395008
Au            5.8990748415        3.4058307448        2.4082259235
Au            2.9495548230        6.8116915052        4.8182056502
Au            2.9495554341        5.1087510177       -0.0015525422
Au            4.4243204748        5.9602131784        2.4082373978



     Writing output data file ./surface.save/
     NEW-OLD atomic charge density approx. for the potential

     Check: negative core charge=   -0.000003

     negative rho (up, down):  7.243E-05 0.000E+00

     total cpu time spent up to now is       58.8 secs

     Self-consistent Calculation

     iteration #  1     ecut=    30.00 Ry     beta= 0.30
     Davidson diagonalization with overlap
     ethr =  1.00E-06,  avg # of iterations =  3.0

     Threshold (ethr) on eigenvalues was too large:
     Diagonalizing with lowered threshold

     Davidson diagonalization with overlap
     ethr =  1.38E-08,  avg # of iterations =  6.0

     negative rho (up, down):  7.233E-05 0.000E+00

     total cpu time spent up to now is       69.0 secs

     total energy              =   -3104.19554676 Ry
     estimated scf accuracy    <       0.00000631 Ry

     iteration #  2     ecut=    30.00 Ry     beta= 0.30
     Davidson diagonalization with overlap
     c_bands:  2 eigenvalues not converged
     ethr =  2.12E-09,  avg # of iterations =  8.0

     negative rho (up, down):  7.225E-05 0.000E+00

     total cpu time spent up to now is       73.5 secs

     total energy              =   -3104.19554676 Ry
     estimated scf accuracy    <       0.00002178 Ry

     iteration #  3     ecut=    30.00 Ry     beta= 0.30
     Davidson diagonalization with overlap
     ethr =  2.12E-09,  avg # of iterations =  4.8

     negative rho (up, down):  7.207E-05 0.000E+00

     total cpu time spent up to now is       76.9 secs

     End of self-consistent calculation

          k = 0.0000 0.0000 0.0000 ( 21879 PWs)   bands (ev):

    -5.6186  -4.0381  -3.6837  -3.5559  -3.5559  -3.5558  -3.5558  -3.5558
    -3.5558  -2.9496  -2.9496  -2.9496  -2.9495  -2.9495  -2.9495  -2.7104
    -2.7104  -2.7104  -2.7103  -2.7103  -2.7103  -2.3596  -2.3596  -2.3596
    -2.3596  -2.3596  -2.3596  -2.3494  -2.3494  -2.3149  -2.3149  -2.3146
    -2.3146  -1.8867  -1.8867  -1.8867  -1.8867  -1.5415  -1.5415  -1.5415
    -1.5415  -1.5415  -1.5415  -1.4280  -1.4280  -1.3977  -1.3287  -1.3287
    -1.3287  -1.3287  -1.3287  -1.3287  -1.1328  -1.1328  -1.0803  -1.0803
    -0.9453  -0.9085  -0.9085  -0.9084  -0.9084  -0.9084  -0.9083  -0.9003
    -0.9003  -0.8837  -0.8837  -0.8836  -0.8836  -0.8836  -0.8836  -0.7941
    -0.7941  -0.7930  -0.7930  -0.7860  -0.7860  -0.7730  -0.7730  -0.2248
    -0.2248  -0.2248  -0.2248  -0.2248  -0.2248  -0.1019  -0.1019  -0.1016
    -0.1016  -0.0283  -0.0283  -0.0283  -0.0283  -0.0283  -0.0282  -0.0273
    -0.0273   0.0623   0.0623   0.0623   0.0623   0.0623   0.0623   0.3671
     0.3671   0.3671   0.3671   0.3671   0.3671   0.4160   0.4161   0.4161
     0.4161   0.4161   0.4161   0.4771   0.4771   0.6406   0.6406   0.6407
     0.6407   0.6407   0.6407   0.6955   0.6955   0.6955   0.6955   0.6955
     0.6955   0.6989   0.6989   0.6995   0.6995   0.7918   0.7918   0.9011
     0.9011   0.9659   0.9659   0.9659   0.9659   0.9660   0.9660   1.3245
     1.3245   1.3245   1.3246   1.3246   1.3246   1.4225   3.4432   3.8353
     3.8354   3.8354   3.8354   3.8355   3.8355   5.6157   5.6157   5.8707
     5.8707   5.8714   5.8714   7.2273   7.5651   7.5651   7.5651   7.5651
     7.5651   7.5652   8.0319   8.0319   8.0584   8.0584   8.0587   8.0587
     8.3455   8.7499   9.2764

     occupation numbers 
     1.0000   1.0000   1.0000   1.0000   1.0000   1.0000   1.0000   1.0000
     1.0000   1.0000   1.0000   1.0000   1.0000   1.0000   1.0000   1.0000
     1.0000   1.0000   1.0000   1.0000   1.0000   1.0000   1.0000   1.0000
     1.0000   1.0000   1.0000   1.0000   1.0000   1.0000   1.0000   1.0000
     1.0000   1.0000   1.0000   1.0000   1.0000   1.0000   1.0000   1.0000
     1.0000   1.0000   1.0000   1.0000   1.0000   1.0000   1.0000   1.0000
     1.0000   1.0000   1.0000   1.0000   1.0000   1.0000   1.0000   1.0000
     1.0000   1.0000   1.0000   1.0000   1.0000   1.0000   1.0000   1.0000
     1.0000   1.0000   1.0000   1.0000   1.0000   1.0000   1.0000   1.0000
     1.0000   1.0000   1.0000   1.0000   1.0000   1.0000   1.0000   1.0000
     1.0000   1.0000   1.0000   1.0000   1.0000   1.0000   1.0000   1.0000
     1.0000   1.0000   1.0000   1.0000   1.0000   1.0000   1.0000   1.0000
     1.0000   1.0000   1.0000   1.0000   1.0000   1.0000   1.0000   1.0000
     1.0000   1.0000   1.0000   1.0000   1.0000   1.0000   1.0000   1.0000
     1.0000   1.0000   1.0000   1.0000   1.0000   1.0000   1.0000   1.0000
     1.0000   1.0000   1.0000   1.0000   1.0000   1.0000   1.0000   1.0000
     1.0000   1.0000   1.0000   1.0000   1.0000   1.0000   1.0000   1.0000
     1.0000   1.0000   1.0000   1.0000   1.0000   1.0000   1.0000   1.0000
     1.0000   1.0000   1.0000   1.0000   1.0000   1.0000   0.0000   0.0000
     0.0000   0.0000   0.0000   0.0000   0.0000   0.0000   0.0000   0.0000
     0.0000   0.0000   0.0000   0.0000   0.0000   0.0000   0.0000   0.0000
     0.0000   0.0000   0.0000   0.0000   0.0000   0.0000   0.0000   0.0000
     0.0000   0.0000   0.0000

          k = 0.0000 0.2887 0.0000 ( 21901 PWs)   bands (ev):

    -5.4185  -4.1039  -3.8400  -3.6373  -3.6373  -3.5083  -3.4289  -3.3119
    -3.3119  -3.0909  -2.9184  -2.9184  -2.9118  -2.8030  -2.7751  -2.7751
    -2.6997  -2.6997  -2.6745  -2.5829  -2.5829  -2.5826  -2.5749  -2.5749
    -2.4974  -2.4974  -2.3544  -2.3544  -2.2661  -2.2661  -2.1052  -2.1052
    -2.0624  -2.0137  -2.0137  -1.7474  -1.7473  -1.7473  -1.6544  -1.6544
    -1.6055  -1.6035  -1.6035  -1.5470  -1.4400  -1.4400  -1.4164  -1.3947
    -1.3699  -1.3699  -1.3140  -1.3140  -1.3092  -1.3031  -1.2681  -1.1427
    -1.1427  -1.0518  -1.0518  -1.0173  -1.0173  -1.0015  -0.9921  -0.9621
    -0.9455  -0.8952  -0.8936  -0.8936  -0.8707  -0.8707  -0.8172  -0.7776
    -0.7580  -0.7580  -0.7016  -0.7016  -0.6979  -0.6064  -0.5764  -0.5218
    -0.5218  -0.5019  -0.5019  -0.4479  -0.4459  -0.4459  -0.2243  -0.2243
    -0.1926  -0.1926  -0.1395  -0.1395  -0.1347  -0.0689  -0.0650  -0.0041
    -0.0041   0.0311   0.0311   0.0685   0.0866   0.0913   0.0913   0.1393
     0.1393   0.1495   0.1736   0.2512   0.3327   0.3327   0.3474   0.3474
     0.4169   0.4718   0.5895   0.5895   0.5994   0.5994   0.6158   0.6158
     0.6883   0.6925   0.6925   0.6972   0.7595   0.7850   0.7850   0.8175
     0.8740   0.8782   0.8782   0.8996   0.8996   0.9047   0.9261   0.9710
     0.9710   0.9741   0.9741   1.1530   1.1918   1.2309   1.2309   1.5437
     1.5437   1.6713   1.7435   2.3239   2.3239   2.6741   2.9810   3.5052
     3.5052   3.9257   4.3571   4.3571   4.6208   4.6208   5.0674   5.6516
     5.6516   6.1608   6.1608   6.2908   6.6063   7.1431   7.1431   7.1891
     7.1891   7.3680   7.7628   7.7628   7.8783   7.9905   7.9905   8.4920
     8.5144   8.5851   8.5855

     occupation numbers 
     1.0000   1.0000   1.0000   1.0000   1.0000   1.0000   1.0000   1.0000
     1.0000   1.0000   1.0000   1.0000   1.0000   1.0000   1.0000   1.0000
     1.0000   1.0000   1.0000   1.0000   1.0000   1.0000   1.0000   1.0000
     1.0000   1.0000   1.0000   1.0000   1.0000   1.0000   1.0000   1.0000
     1.0000   1.0000   1.0000   1.0000   1.0000   1.0000   1.0000   1.0000
     1.0000   1.0000   1.0000   1.0000   1.0000   1.0000   1.0000   1.0000
     1.0000   1.0000   1.0000   1.0000   1.0000   1.0000   1.0000   1.0000
     1.0000   1.0000   1.0000   1.0000   1.0000   1.0000   1.0000   1.0000
     1.0000   1.0000   1.0000   1.0000   1.0000   1.0000   1.0000   1.0000
     1.0000   1.0000   1.0000   1.0000   1.0000   1.0000   1.0000   1.0000
     1.0000   1.0000   1.0000   1.0000   1.0000   1.0000   1.0000   1.0000
     1.0000   1.0000   1.0000   1.0000   1.0000   1.0000   1.0000   1.0000
     1.0000   1.0000   1.0000   1.0000   1.0000   1.0000   1.0000   1.0000
     1.0000   1.0000   1.0000   1.0000   1.0000   1.0000   1.0000   1.0000
     1.0000   1.0000   1.0000   1.0000   1.0000   1.0000   1.0000   1.0000
     1.0000   1.0000   1.0000   1.0000   1.0000   1.0000   1.0000   1.0000
     1.0000   1.0000   1.0000   1.0000   1.0000   1.0000   1.0000   1.0000
     1.0000   1.0000   1.0000   1.0000   1.0000   1.0000   1.0000   1.0000
     1.0000   1.0000   1.0000   1.0000   1.0000   1.0000   0.0000   0.0000
     0.0000   0.0000   0.0000   0.0000   0.0000   0.0000   0.0000   0.0000
     0.0000   0.0000   0.0000   0.0000   0.0000   0.0000   0.0000   0.0000
     0.0000   0.0000   0.0000   0.0000   0.0000   0.0000   0.0000   0.0000
     0.0000   0.0000   0.0000

          k = 0.0000-0.5774 0.0000 ( 21828 PWs)   bands (ev):

    -4.8575  -4.8575  -3.6406  -3.6406  -3.4350  -3.3250  -3.3250  -3.1516
    -3.0601  -3.0601  -2.9163  -2.9163  -2.9163  -2.9163  -2.8342  -2.7695
    -2.7695  -2.7694  -2.7694  -2.6652  -2.6012  -2.6012  -2.5515  -2.5515
    -2.5515  -2.5515  -2.2856  -2.2856  -2.2017  -2.2017  -2.0609  -2.0609
    -2.0609  -2.0609  -1.8108  -1.8107  -1.7107  -1.7107  -1.7107  -1.7107
    -1.6792  -1.6792  -1.6309  -1.6050  -1.6049  -1.4959  -1.4959  -1.4924
    -1.4094  -1.4094  -1.4093  -1.4093  -1.3503  -1.3503  -1.3383  -1.3383
    -1.2427  -1.2427  -1.1980  -1.1980  -1.1980  -1.1980  -1.0419  -1.0418
    -1.0370  -0.9864  -0.9863  -0.9007  -0.9007  -0.8103  -0.8103  -0.8103
    -0.8103  -0.7976  -0.7976  -0.7680  -0.7680  -0.6699  -0.6699  -0.4286
    -0.4279  -0.4279  -0.3114  -0.3114  -0.2920  -0.2920  -0.2920  -0.2920
    -0.2715  -0.2715  -0.1187  -0.1187  -0.1186  -0.1186  -0.0782  -0.0782
    -0.0782  -0.0782  -0.0746  -0.0746  -0.0522  -0.0522   0.0680   0.0777
     0.0777   0.2287   0.2287   0.2605   0.2605   0.2606   0.2606   0.2831
     0.4432   0.4432   0.5409   0.5410   0.5410   0.5410   0.5873   0.5874
     0.6202   0.6202   0.7181   0.7181   0.7821   0.8327   0.8327   0.8939
     0.8939   0.8940   0.8940   0.9142   0.9143   0.9166   0.9660   1.0984
     1.0984   1.0985   1.0985   1.2554   1.2554   1.3268   1.3551   2.3228
     2.3229   2.8717   2.8717   2.8717   2.8717   3.2391   3.4216   3.4216
     3.9474   3.9474   3.9474   3.9474   4.0643   4.3522   4.9972   4.9972
     5.9595   5.9595   5.9595   5.9595   6.2148   6.8594   6.8594   6.8594
     6.8595   6.9471   6.9968   6.9968   7.7010   7.7892   7.7893   8.2327
     8.2327   8.2328   8.2328

     occupation numbers 
     1.0000   1.0000   1.0000   1.0000   1.0000   1.0000   1.0000   1.0000
     1.0000   1.0000   1.0000   1.0000   1.0000   1.0000   1.0000   1.0000
     1.0000   1.0000   1.0000   1.0000   1.0000   1.0000   1.0000   1.0000
     1.0000   1.0000   1.0000   1.0000   1.0000   1.0000   1.0000   1.0000
     1.0000   1.0000   1.0000   1.0000   1.0000   1.0000   1.0000   1.0000
     1.0000   1.0000   1.0000   1.0000   1.0000   1.0000   1.0000   1.0000
     1.0000   1.0000   1.0000   1.0000   1.0000   1.0000   1.0000   1.0000
     1.0000   1.0000   1.0000   1.0000   1.0000   1.0000   1.0000   1.0000
     1.0000   1.0000   1.0000   1.0000   1.0000   1.0000   1.0000   1.0000
     1.0000   1.0000   1.0000   1.0000   1.0000   1.0000   1.0000   1.0000
     1.0000   1.0000   1.0000   1.0000   1.0000   1.0000   1.0000   1.0000
     1.0000   1.0000   1.0000   1.0000   1.0000   1.0000   1.0000   1.0000
     1.0000   1.0000   1.0000   1.0000   1.0000   1.0000   1.0000   1.0000
     1.0000   1.0000   1.0000   1.0000   1.0000   1.0000   1.0000   1.0000
     1.0000   1.0000   1.0000   1.0000   1.0000   1.0000   1.0000   1.0000
     1.0000   1.0000   1.0000   1.0000   1.0000   1.0000   1.0000   1.0000
     1.0000   1.0000   1.0000   1.0000   1.0000   1.0000   1.0000   1.0000
     1.0000   1.0000   1.0000   1.0000   1.0000   1.0000   1.0000   1.0000
     1.0000   0.1483   0.1482   0.1481   0.1480   0.0000   0.0000   0.0000
     0.0000   0.0000   0.0000   0.0000   0.0000   0.0000   0.0000   0.0000
     0.0000   0.0000   0.0000   0.0000   0.0000   0.0000   0.0000   0.0000
     0.0000   0.0000   0.0000   0.0000   0.0000   0.0000   0.0000   0.0000
     0.0000   0.0000   0.0000

          k = 0.2500 0.4330 0.0000 ( 21853 PWs)   bands (ev):

    -5.0353  -4.3528  -4.3528  -3.4738  -3.2937  -3.2937  -3.1881  -3.0565
    -3.0564  -3.0349  -3.0348  -2.9328  -2.9327  -2.9273  -2.8190  -2.7655
    -2.7655  -2.7055  -2.7054  -2.6548  -2.6548  -2.6234  -2.6230  -2.5772
    -2.4994  -2.4994  -2.4406  -2.4406  -2.2910  -2.1234  -1.9908  -1.9908
    -1.9582  -1.9581  -1.9086  -1.7742  -1.7605  -1.7604  -1.7502  -1.7401
    -1.7255  -1.7255  -1.6411  -1.6411  -1.5502  -1.5502  -1.4989  -1.4792
    -1.4182  -1.4182  -1.4171  -1.3933  -1.3933  -1.3068  -1.2845  -1.1665
    -1.1665  -1.1312  -1.1312  -1.1272  -1.1271  -1.0807  -1.0500  -1.0500
    -1.0073  -0.9946  -0.9622  -0.9292  -0.9292  -0.9005  -0.8352  -0.8307
    -0.8306  -0.7669  -0.7669  -0.7034  -0.6966  -0.6911  -0.6183  -0.6183
    -0.5817  -0.5817  -0.5249  -0.5249  -0.5187  -0.4361  -0.4360  -0.2752
    -0.1989  -0.1381  -0.1322  -0.1196  -0.1196  -0.0787  -0.0787  -0.0484
    -0.0484  -0.0223  -0.0193  -0.0193  -0.0113  -0.0113   0.0221   0.1483
     0.1483   0.1629   0.1891   0.1935   0.1936   0.2729   0.3260   0.3260
     0.4413   0.4414   0.4510   0.4795   0.6318   0.6318   0.7000   0.7429
     0.7474   0.7474   0.7741   0.7742   0.8011   0.8447   0.8448   0.8602
     0.8694   0.8695   0.8808   0.8808   0.8923   0.9640   0.9641   1.0147
     1.0147   1.0274   1.1025   1.1629   1.1629   1.6436   1.6436   2.1631
     2.3603   2.3603   2.7512   2.7513   2.8653   2.9786   2.9787   3.9413
     3.9755   3.9755   4.4613   4.4613   4.4866   4.6813   4.7402   5.2625
     5.2625   5.5745   5.8351   5.8352   5.8649   6.3728   6.3961   6.3961
     6.9185   6.9185   7.5333   7.6489   8.1538   8.1867   8.2110   8.2110
     8.2653   8.2653   8.5596

     occupation numbers 
     1.0000   1.0000   1.0000   1.0000   1.0000   1.0000   1.0000   1.0000
     1.0000   1.0000   1.0000   1.0000   1.0000   1.0000   1.0000   1.0000
     1.0000   1.0000   1.0000   1.0000   1.0000   1.0000   1.0000   1.0000
     1.0000   1.0000   1.0000   1.0000   1.0000   1.0000   1.0000   1.0000
     1.0000   1.0000   1.0000   1.0000   1.0000   1.0000   1.0000   1.0000
     1.0000   1.0000   1.0000   1.0000   1.0000   1.0000   1.0000   1.0000
     1.0000   1.0000   1.0000   1.0000   1.0000   1.0000   1.0000   1.0000
     1.0000   1.0000   1.0000   1.0000   1.0000   1.0000   1.0000   1.0000
     1.0000   1.0000   1.0000   1.0000   1.0000   1.0000   1.0000   1.0000
     1.0000   1.0000   1.0000   1.0000   1.0000   1.0000   1.0000   1.0000
     1.0000   1.0000   1.0000   1.0000   1.0000   1.0000   1.0000   1.0000
     1.0000   1.0000   1.0000   1.0000   1.0000   1.0000   1.0000   1.0000
     1.0000   1.0000   1.0000   1.0000   1.0000   1.0000   1.0000   1.0000
     1.0000   1.0000   1.0000   1.0000   1.0000   1.0000   1.0000   1.0000
     1.0000   1.0000   1.0000   1.0000   1.0000   1.0000   1.0000   1.0000
     1.0000   1.0000   1.0000   1.0000   1.0000   1.0000   1.0000   1.0000
     1.0000   1.0000   1.0000   1.0000   1.0000   1.0000   1.0000   1.0000
     1.0000   1.0000   1.0000   1.0000   1.0000   1.0000   1.0000   1.0000
     1.0000   1.0000   0.9991   0.9991   0.2055   0.0000   0.0000   0.0000
     0.0000   0.0000   0.0000   0.0000   0.0000   0.0000   0.0000   0.0000
     0.0000   0.0000   0.0000   0.0000   0.0000   0.0000   0.0000   0.0000
     0.0000   0.0000   0.0000   0.0000   0.0000   0.0000   0.0000   0.0000
     0.0000   0.0000   0.0000

     the Fermi energy is     2.8415 ev

!    total energy              =   -3104.19554826 Ry
     estimated scf accuracy    <       0.00000096 Ry
     smearing contrib. (-TS)   =      -0.00119792 Ry
     internal energy E=F+TS    =   -3104.19435034 Ry

     The total energy is F=E-TS. E is the sum of the following terms:
     one-electron contribution =   -8567.72731908 Ry
     hartree contribution      =    4522.09154782 Ry
     xc contribution           =   -1678.96069544 Ry
     ewald contribution        =    2620.40211637 Ry

     convergence has been achieved in   3 iterations

     negative rho (up, down):  7.207E-05 0.000E+00

     Forces acting on atoms (cartesian axes, Ry/au):

     atom    1 type  1   force =    -0.00000000   -0.00002616    0.00253485
     atom    2 type  1   force =    -0.00000000   -0.00000000   -0.00265410
     atom    3 type  1   force =     0.00002271    0.00001311    0.00013823
     atom    4 type  1   force =    -0.00004521   -0.00002610    0.00254660
     atom    5 type  1   force =    -0.00004803   -0.00000913   -0.00265552
     atom    6 type  1   force =     0.00000000   -0.00004880    0.00010192
     atom    7 type  1   force =    -0.00002265    0.00001308    0.00253485
     atom    8 type  1   force =    -0.00003192   -0.00003703   -0.00265552
     atom    9 type  1   force =    -0.00004226    0.00002440    0.00010192
     atom   10 type  1   force =     0.00002058    0.00001188    0.00251272
     atom   11 type  1   force =     0.00001611    0.00004616   -0.00265552
     atom   12 type  1   force =     0.00000000    0.00007405    0.00013123
     atom   13 type  1   force =     0.00004521   -0.00002610    0.00254660
     atom   14 type  1   force =     0.00004803   -0.00000913   -0.00265552
     atom   15 type  1   force =     0.00006413   -0.00003702    0.00013123
     atom   16 type  1   force =    -0.00000000    0.00005221    0.00254660
     atom   17 type  1   force =     0.00000000    0.00000000   -0.00269082
     atom   18 type  1   force =     0.00004226    0.00002440    0.00010192
     atom   19 type  1   force =    -0.00002058    0.00001188    0.00251272
     atom   20 type  1   force =    -0.00001611    0.00004616   -0.00265552
     atom   21 type  1   force =    -0.00002271    0.00001311    0.00013823
     atom   22 type  1   force =     0.00000000   -0.00002376    0.00251272
     atom   23 type  1   force =     0.00000000    0.00000000   -0.00261860
     atom   24 type  1   force =    -0.00006413   -0.00003702    0.00013123
     atom   25 type  1   force =     0.00002265    0.00001308    0.00253485
     atom   26 type  1   force =     0.00003192   -0.00003703   -0.00265552
     atom   27 type  1   force =     0.00000000   -0.00002622    0.00013823
     The non-local contrib.  to forces
     atom    1 type  1   force =     0.00000000   -0.00001197   -0.03765730
     atom    2 type  1   force =     0.00000000    0.00000000    0.03783536
     atom    3 type  1   force =     0.00000888    0.00000513    0.00023395
     atom    4 type  1   force =    -0.00002720   -0.00001570   -0.03765039
     atom    5 type  1   force =    -0.00002609   -0.00000626    0.03783189
     atom    6 type  1   force =     0.00000000   -0.00002694    0.00020046
     atom    7 type  1   force =    -0.00001037    0.00000599   -0.03765730
     atom    8 type  1   force =    -0.00001846   -0.00001946    0.03783189
     atom    9 type  1   force =    -0.00002333    0.00001347    0.00020046
     atom   10 type  1   force =     0.00001420    0.00000820   -0.03767304
     atom   11 type  1   force =     0.00000762    0.00002572    0.03783189
     atom   12 type  1   force =     0.00000000    0.00003614    0.00024215
     atom   13 type  1   force =     0.00002720   -0.00001570   -0.03765039
     atom   14 type  1   force =     0.00002609   -0.00000626    0.03783189
     atom   15 type  1   force =     0.00003130   -0.00001807    0.00024215
     atom   16 type  1   force =     0.00000000    0.00003140   -0.03765039
     atom   17 type  1   force =     0.00000000    0.00000000    0.03781144
     atom   18 type  1   force =     0.00002333    0.00001347    0.00020046
     atom   19 type  1   force =    -0.00001420    0.00000820   -0.03767304
     atom   20 type  1   force =    -0.00000762    0.00002572    0.03783189
     atom   21 type  1   force =    -0.00000888    0.00000513    0.00023395
     atom   22 type  1   force =     0.00000000   -0.00001640   -0.03767304
     atom   23 type  1   force =     0.00000000    0.00000000    0.03785819
     atom   24 type  1   force =    -0.00003130   -0.00001807    0.00024215
     atom   25 type  1   force =     0.00001037    0.00000599   -0.03765730
     atom   26 type  1   force =     0.00001846   -0.00001946    0.03783189
     atom   27 type  1   force =     0.00000000   -0.00001026    0.00023395
     The ionic contribution  to forces
     atom    1 type  1   force =    -0.00001458    0.00031831   65.14503261
     atom    2 type  1   force =    -0.00001179   -0.00002450  -65.14587883
     atom    3 type  1   force =    -0.00036571   -0.00023014    0.00102146
     atom    4 type  1   force =     0.00050238    0.00029141   65.14488972
     atom    5 type  1   force =     0.00055980    0.00010415  -65.14602078
     atom    6 type  1   force =    -0.00002144    0.00049231    0.00107959
     atom    7 type  1   force =     0.00028562   -0.00016570   65.14502511
     atom    8 type  1   force =     0.00037032    0.00045321  -65.14601956
     atom    9 type  1   force =     0.00041182   -0.00023657    0.00107312
     atom   10 type  1   force =    -0.00021091   -0.00014402   65.14503962
     atom   11 type  1   force =    -0.00019070   -0.00057288  -65.14601956
     atom   12 type  1   force =     0.00000303   -0.00090912    0.00096145
     atom   13 type  1   force =    -0.00051769    0.00029983   65.14489806
     atom   14 type  1   force =    -0.00057484    0.00010757  -65.14602828
     atom   15 type  1   force =    -0.00076899    0.00044961    0.00095498
     atom   16 type  1   force =    -0.00000037   -0.00058110   65.14488935
     atom   17 type  1   force =    -0.00000360    0.00001742  -65.14579565
     atom   18 type  1   force =    -0.00043184   -0.00022379    0.00107002
     atom   19 type  1   force =     0.00023208   -0.00013413   65.14503704
     atom   20 type  1   force =     0.00020634   -0.00056245  -65.14602078
     atom   21 type  1   force =     0.00035826   -0.00021305    0.00101991
     atom   22 type  1   force =     0.00001915    0.00025553   65.14503826
     atom   23 type  1   force =     0.00001721    0.00000541  -65.14621297
     atom   24 type  1   force =     0.00078442    0.00045391    0.00095653
     atom   25 type  1   force =    -0.00028309   -0.00014739   65.14503088
     atom   26 type  1   force =    -0.00036729    0.00046706  -65.14602828
     atom   27 type  1   force =     0.00001240    0.00042911    0.00100697
     The local contribution  to forces
     atom    1 type  1   force =     0.00003493   -0.00017442  -65.08410910
     atom    2 type  1   force =     0.00000000   -0.00000000   65.08391221
     atom    3 type  1   force =     0.00022881    0.00017159   -0.00200504
     atom    4 type  1   force =    -0.00024791   -0.00015612  -65.08402022
     atom    5 type  1   force =    -0.00036252   -0.00003898   65.08405334
     atom    6 type  1   force =    -0.00003420   -0.00021087   -0.00198230
     atom    7 type  1   force =    -0.00012235    0.00009799  -65.08410910
     atom    8 type  1   force =    -0.00023870   -0.00025344   65.08405334
     atom    9 type  1   force =    -0.00025710    0.00017522   -0.00198230
     atom   10 type  1   force =     0.00018209    0.00006480  -65.08400407
     atom   11 type  1   force =     0.00014751    0.00033344   65.08405334
     atom   12 type  1   force =    -0.00001101    0.00056298   -0.00186244
     atom   13 type  1   force =     0.00031777   -0.00015612  -65.08402022
     atom   14 type  1   force =     0.00036252   -0.00003898   65.08405334
     atom   15 type  1   force =     0.00044786   -0.00023179   -0.00186244
     atom   16 type  1   force =     0.00003493    0.00033378  -65.08402022
     atom   17 type  1   force =     0.00000000    0.00002735   65.08395952
     atom   18 type  1   force =     0.00018871    0.00017522   -0.00198230
     atom   19 type  1   force =    -0.00006486    0.00006480  -65.08400407
     atom   20 type  1   force =    -0.00010014    0.00033344   65.08405334
     atom   21 type  1   force =    -0.00025083    0.00017159   -0.00200504
     atom   22 type  1   force =     0.00005861   -0.00014907  -65.08400407
     atom   23 type  1   force =     0.00002368    0.00001367   65.08411034
     atom   24 type  1   force =    -0.00046988   -0.00023179   -0.00186244
     atom   25 type  1   force =     0.00019220    0.00009799  -65.08410910
     atom   26 type  1   force =     0.00023870   -0.00025344   65.08405334
     atom   27 type  1   force =    -0.00001101   -0.00024378   -0.00200504
     The core correction contribution to forces
     atom    1 type  1   force =     0.00001114    0.00000219   -0.02122562
     atom    2 type  1   force =    -0.00000000    0.00000000    0.02123588
     atom    3 type  1   force =    -0.00000298    0.00001114   -0.00001662
     atom    4 type  1   force =     0.00001227    0.00000294   -0.02122714
     atom    5 type  1   force =    -0.00000358    0.00000665    0.02123729
     atom    6 type  1   force =    -0.00001113    0.00001700   -0.00000981
     atom    7 type  1   force =     0.00001105    0.00000234   -0.02122562
     atom    8 type  1   force =    -0.00000358    0.00000667    0.02123729
     atom    9 type  1   force =    -0.00000953    0.00001422   -0.00000980
     atom   10 type  1   force =     0.00001794   -0.00000251   -0.02122562
     atom   11 type  1   force =     0.00000755   -0.00000023    0.02123729
     atom   12 type  1   force =    -0.00000358    0.00001028   -0.00002103
     atom   13 type  1   force =     0.00001001    0.00000294   -0.02122714
     atom   14 type  1   force =     0.00000357    0.00000665    0.02123729
     atom   15 type  1   force =    -0.00000402    0.00001104   -0.00002103
     atom   16 type  1   force =     0.00001114    0.00000099   -0.02122714
     atom   17 type  1   force =    -0.00000000    0.00000872    0.02123743
     atom   18 type  1   force =    -0.00001274    0.00001422   -0.00000980
     atom   19 type  1   force =     0.00001944   -0.00000250   -0.02122562
     atom   20 type  1   force =     0.00000756   -0.00000023    0.02123729
     atom   21 type  1   force =    -0.00000419    0.00001114   -0.00001662
     atom   22 type  1   force =     0.00001869   -0.00000120   -0.02122563
     atom   23 type  1   force =     0.00000755    0.00000436    0.02123673
     atom   24 type  1   force =    -0.00000314    0.00001104   -0.00002103
     atom   25 type  1   force =     0.00001123    0.00000235   -0.02122563
     atom   26 type  1   force =     0.00000358    0.00000666    0.02123729
     atom   27 type  1   force =    -0.00000358    0.00001009   -0.00001662
     The Hubbard contrib.    to forces
     atom    1 type  1   force =     0.00000000    0.00000000    0.00000000
     atom    2 type  1   force =     0.00000000    0.00000000    0.00000000
     atom    3 type  1   force =     0.00000000    0.00000000    0.00000000
     atom    4 type  1   force =     0.00000000    0.00000000    0.00000000
     atom    5 type  1   force =     0.00000000    0.00000000    0.00000000
     atom    6 type  1   force =     0.00000000    0.00000000    0.00000000
     atom    7 type  1   force =     0.00000000    0.00000000    0.00000000
     atom    8 type  1   force =     0.00000000    0.00000000    0.00000000
     atom    9 type  1   force =     0.00000000    0.00000000    0.00000000
     atom   10 type  1   force =     0.00000000    0.00000000    0.00000000
     atom   11 type  1   force =     0.00000000    0.00000000    0.00000000
     atom   12 type  1   force =     0.00000000    0.00000000    0.00000000
     atom   13 type  1   force =     0.00000000    0.00000000    0.00000000
     atom   14 type  1   force =     0.00000000    0.00000000    0.00000000
     atom   15 type  1   force =     0.00000000    0.00000000    0.00000000
     atom   16 type  1   force =     0.00000000    0.00000000    0.00000000
     atom   17 type  1   force =     0.00000000    0.00000000    0.00000000
     atom   18 type  1   force =     0.00000000    0.00000000    0.00000000
     atom   19 type  1   force =     0.00000000    0.00000000    0.00000000
     atom   20 type  1   force =     0.00000000    0.00000000    0.00000000
     atom   21 type  1   force =     0.00000000    0.00000000    0.00000000
     atom   22 type  1   force =     0.00000000    0.00000000    0.00000000
     atom   23 type  1   force =     0.00000000    0.00000000    0.00000000
     atom   24 type  1   force =     0.00000000    0.00000000    0.00000000
[...]
     atom   18 type  1   force =    -0.00000114   -0.00000066    0.00000821
     atom   19 type  1   force =     0.00000129   -0.00000075   -0.03674597
     atom   20 type  1   force =     0.00000153   -0.00000411    0.03674349
     atom   21 type  1   force =     0.00000078   -0.00000045    0.00000777
     atom   22 type  1   force =     0.00000000    0.00000149   -0.03674597
     atom   23 type  1   force =     0.00000000    0.00000000    0.03674498
     atom   24 type  1   force =     0.00000194    0.00000112    0.00000684
     atom   25 type  1   force =    -0.00000214   -0.00000123   -0.03674604
     atom   26 type  1   force =    -0.00000279    0.00000338    0.03674349
     atom   27 type  1   force =     0.00000000    0.00000090    0.00000777
     The ionic contribution  to forces
     atom    1 type  1   force =    -0.00001458    0.00029028   64.81427836
     atom    2 type  1   force =    -0.00001182   -0.00002446  -64.81415404
     atom    3 type  1   force =    -0.00010216   -0.00007799    0.00046170
     atom    4 type  1   force =     0.00044191    0.00025655   64.81389283
     atom    5 type  1   force =     0.00049991    0.00007883  -64.81452427
     atom    6 type  1   force =    -0.00002129    0.00016344    0.00022237
     atom    7 type  1   force =     0.00026120   -0.00015158   64.81427101
     atom    8 type  1   force =     0.00031841    0.00041395  -64.81452305
     atom    9 type  1   force =     0.00012717   -0.00007229    0.00021601
     atom   10 type  1   force =    -0.00014219   -0.00010421   64.81429057
     atom   11 type  1   force =    -0.00018268   -0.00050826  -64.81452305
     atom   12 type  1   force =     0.00000308   -0.00028952    0.00034497
     atom   13 type  1   force =    -0.00045727    0.00026492   64.81390104
     atom   14 type  1   force =    -0.00051496    0.00008233  -64.81453163
     atom   15 type  1   force =    -0.00023238    0.00013973    0.00033861
     atom   16 type  1   force =    -0.00000044   -0.00051130   64.81389247
     atom   17 type  1   force =    -0.00000359    0.00001742  -64.81434739
     atom   18 type  1   force =    -0.00014702   -0.00005957    0.00021294
     atom   19 type  1   force =     0.00016319   -0.00009435   64.81428804
     atom   20 type  1   force =     0.00019829   -0.00049788  -64.81452427
     atom   21 type  1   force =     0.00009496   -0.00006093    0.00046016
     atom   22 type  1   force =     0.00001904    0.00017609   64.81428926
     atom   23 type  1   force =     0.00001715    0.00000545  -64.81476531
     atom   24 type  1   force =     0.00024790    0.00014407    0.00034014
     atom   25 type  1   force =    -0.00025880   -0.00013335   64.81427669
     atom   26 type  1   force =    -0.00031549    0.00042783  -64.81453162
     atom   27 type  1   force =     0.00001244    0.00012482    0.00044745
     The local contribution  to forces
     atom    1 type  1   force =     0.00003496   -0.00029552  -64.75704556
     atom    2 type  1   force =     0.00000000   -0.00000000   64.75692969
     atom    3 type  1   force =     0.00010147    0.00009814   -0.00044351
     atom    4 type  1   force =    -0.00042530   -0.00025854  -64.75666360
     atom    5 type  1   force =    -0.00054625   -0.00006011   64.75730233
     atom    6 type  1   force =    -0.00003426   -0.00012183   -0.00020822
     atom    7 type  1   force =    -0.00022719    0.00015854  -64.75704556
     atom    8 type  1   force =    -0.00034889   -0.00040195   64.75730233
     atom    9 type  1   force =    -0.00018013    0.00013082   -0.00020822
     atom   10 type  1   force =     0.00022011    0.00008671  -64.75706488
     atom   11 type  1   force =     0.00022106    0.00050312   64.75730233
     atom   12 type  1   force =    -0.00001103    0.00033800   -0.00033335
     atom   13 type  1   force =     0.00049522   -0.00025854  -64.75666360
     atom   14 type  1   force =     0.00054625   -0.00006011   64.75730233
     atom   15 type  1   force =     0.00025294   -0.00011921   -0.00033335
     atom   16 type  1   force =     0.00003496    0.00053865  -64.75666360
     atom   17 type  1   force =     0.00000000    0.00002737   64.75711700
     atom   18 type  1   force =     0.00011161    0.00013082   -0.00020822
     atom   19 type  1   force =    -0.00010277    0.00008671  -64.75706488
     atom   20 type  1   force =    -0.00017365    0.00050312   64.75730233
     atom   21 type  1   force =    -0.00012353    0.00009814   -0.00044351
     atom   22 type  1   force =     0.00005867   -0.00019291  -64.75706488
     atom   23 type  1   force =     0.00002371    0.00001369   64.75754563
     atom   24 type  1   force =    -0.00027500   -0.00011921   -0.00033335
     atom   25 type  1   force =     0.00029711    0.00015854  -64.75704556
     atom   26 type  1   force =     0.00034889   -0.00040195   64.75730233
     atom   27 type  1   force =    -0.00001103   -0.00009671   -0.00044351
     The core correction contribution to forces
     atom    1 type  1   force =     0.00001114    0.00000169   -0.02048804
     atom    2 type  1   force =    -0.00000000   -0.00000000    0.02053078
     atom    3 type  1   force =    -0.00000356    0.00001079   -0.00001413
     atom    4 type  1   force =     0.00001016    0.00000172   -0.02048794
     atom    5 type  1   force =    -0.00000497    0.00000627    0.02053091
     atom    6 type  1   force =    -0.00001113    0.00001540   -0.00001389
     atom    7 type  1   force =     0.00001062    0.00000259   -0.02048804
     atom    8 type  1   force =    -0.00000461    0.00000564    0.02053091
     atom    9 type  1   force =    -0.00001091    0.00001501   -0.00001389
     atom   10 type  1   force =     0.00001911   -0.00000183   -0.02048829
     atom   11 type  1   force =     0.00000791    0.00000117    0.02053091
     atom   12 type  1   force =    -0.00000358    0.00001073   -0.00001350
     atom   13 type  1   force =     0.00001212    0.00000172   -0.02048794
     atom   14 type  1   force =     0.00000497    0.00000627    0.02053091
     atom   15 type  1   force =    -0.00000363    0.00001081   -0.00001350
     atom   16 type  1   force =     0.00001114    0.00000343   -0.02048793
     atom   17 type  1   force =    -0.00000000    0.00000872    0.02053076
     atom   18 type  1   force =    -0.00001136    0.00001501   -0.00001389
     atom   19 type  1   force =     0.00001828   -0.00000183   -0.02048828
     atom   20 type  1   force =     0.00000719    0.00000117    0.02053091
     atom   21 type  1   force =    -0.00000360    0.00001080   -0.00001413
     atom   22 type  1   force =     0.00001869   -0.00000255   -0.02048829
     atom   23 type  1   force =     0.00000755    0.00000436    0.02053115
     atom   24 type  1   force =    -0.00000353    0.00001082   -0.00001351
     atom   25 type  1   force =     0.00001167    0.00000259   -0.02048804
     atom   26 type  1   force =     0.00000461    0.00000564    0.02053091
     atom   27 type  1   force =    -0.00000358    0.00001077   -0.00001413
     The Hubbard contrib.    to forces
     atom    1 type  1   force =     0.00000000    0.00000000    0.00000000
     atom    2 type  1   force =     0.00000000    0.00000000    0.00000000
     atom    3 type  1   force =     0.00000000    0.00000000    0.00000000
     atom    4 type  1   force =     0.00000000    0.00000000    0.00000000
     atom    5 type  1   force =     0.00000000    0.00000000    0.00000000
     atom    6 type  1   force =     0.00000000    0.00000000    0.00000000
     atom    7 type  1   force =     0.00000000    0.00000000    0.00000000
     atom    8 type  1   force =     0.00000000    0.00000000    0.00000000
     atom    9 type  1   force =     0.00000000    0.00000000    0.00000000
     atom   10 type  1   force =     0.00000000    0.00000000    0.00000000
     atom   11 type  1   force =     0.00000000    0.00000000    0.00000000
     atom   12 type  1   force =     0.00000000    0.00000000    0.00000000
     atom   13 type  1   force =     0.00000000    0.00000000    0.00000000
     atom   14 type  1   force =     0.00000000    0.00000000    0.00000000
     atom   15 type  1   force =     0.00000000    0.00000000    0.00000000
     atom   16 type  1   force =     0.00000000    0.00000000    0.00000000
     atom   17 type  1   force =     0.00000000    0.00000000    0.00000000
     atom   18 type  1   force =     0.00000000    0.00000000    0.00000000
     atom   19 type  1   force =     0.00000000    0.00000000    0.00000000
     atom   20 type  1   force =     0.00000000    0.00000000    0.00000000
     atom   21 type  1   force =     0.00000000    0.00000000    0.00000000
     atom   22 type  1   force =     0.00000000    0.00000000    0.00000000
     atom   23 type  1   force =     0.00000000    0.00000000    0.00000000
     atom   24 type  1   force =     0.00000000    0.00000000    0.00000000
     atom   25 type  1   force =     0.00000000    0.00000000    0.00000000
     atom   26 type  1   force =     0.00000000    0.00000000    0.00000000
     atom   27 type  1   force =     0.00000000    0.00000000    0.00000000
     The SCF correction term to forces
     atom    1 type  1   force =     0.00000000    0.00001042    0.00004102
     atom    2 type  1   force =    -0.00000000    0.00000000   -0.00006088
     atom    3 type  1   force =    -0.00000848   -0.00000490   -0.00000664
     atom    4 type  1   force =     0.00001627    0.00000939    0.00003886
     atom    5 type  1   force =     0.00001799    0.00000480   -0.00005990
     atom    6 type  1   force =    -0.00000000    0.00001557   -0.00000314
     atom    7 type  1   force =     0.00000902   -0.00000521    0.00004102
     atom    8 type  1   force =     0.00001315    0.00001318   -0.00005990
     atom    9 type  1   force =     0.00001349   -0.00000779   -0.00000314
     atom   10 type  1   force =    -0.00000746   -0.00000431    0.00004980
     atom   11 type  1   force =    -0.00000484   -0.00001798   -0.00005990
     atom   12 type  1   force =     0.00000000   -0.00002632   -0.00000142
     atom   13 type  1   force =    -0.00001627    0.00000939    0.00003886
     atom   14 type  1   force =    -0.00001799    0.00000480   -0.00005990
     atom   15 type  1   force =    -0.00002280    0.00001316   -0.00000142
     atom   16 type  1   force =     0.00000000   -0.00001879    0.00003886
     atom   17 type  1   force =    -0.00000000    0.00000000   -0.00005002
     atom   18 type  1   force =    -0.00001349   -0.00000779   -0.00000314
     atom   19 type  1   force =     0.00000746   -0.00000431    0.00004980
     atom   20 type  1   force =     0.00000484   -0.00001798   -0.00005990
     atom   21 type  1   force =     0.00000848   -0.00000490   -0.00000664
     atom   22 type  1   force =     0.00000000    0.00000862    0.00004980
     atom   23 type  1   force =     0.00000000   -0.00000000   -0.00006796
     atom   24 type  1   force =     0.00002280    0.00001316   -0.00000142
     atom   25 type  1   force =    -0.00000902   -0.00000521    0.00004102
     atom   26 type  1   force =    -0.00001315    0.00001318   -0.00005990
     atom   27 type  1   force =     0.00000000    0.00000979   -0.00000664

     Total force =     0.000110     Total SCF correction =     0.000237
     SCF correction compared to forces is large: reduce conv_thr to get better values


     Computing stress (Cartesian axis) and pressure


     negative rho (up, down):  6.708E-05 0.000E+00
          total   stress  (Ry/bohr**3)                   (kbar)     P=      -28.63
  -0.00029071  -0.00000000   0.00000000          -42.77       -0.00        0.00
  -0.00000000  -0.00029071   0.00000000           -0.00      -42.77        0.00
   0.00000000   0.00000000  -0.00000239            0.00        0.00       -0.35

     kinetic stress (kbar)   8407.27      0.00      0.00
                                0.00   8407.27     -0.00
                                0.00      0.00   8539.09

     local   stress (kbar)-151859.51     -0.00     -0.00
                               -0.00-151859.51      0.00
                               -0.00      0.00 172600.44

     nonloc. stress (kbar)  -5355.64     -0.00      0.00
                               -0.00  -5355.64      0.00
                                0.00      0.00  -5357.41

     hartree stress (kbar)  80523.63      0.00     -0.00
                                0.00  80523.63      0.00
                               -0.00      0.00 -77375.23

     exc-cor stress (kbar)  21857.87      0.00     -0.00
                                0.00  21857.87      0.00
                               -0.00      0.00  21850.88

     corecor stress (kbar) -25216.39     -0.00      0.00
                               -0.00 -25216.39     -0.00
                                0.00     -0.00 -25230.71

     ewald   stress (kbar)  71599.99      0.00      0.00
                                0.00  71599.99     -0.00
                                0.00     -0.00 -95027.42

     hubbard stress (kbar)      0.00      0.00      0.00
                                0.00      0.00      0.00
                                0.00      0.00      0.00

     DFT-D   stress (kbar)      0.00      0.00      0.00
                                0.00      0.00      0.00
                                0.00      0.00      0.00

     XDM     stress (kbar)      0.00      0.00      0.00
                                0.00      0.00      0.00
                                0.00      0.00      0.00

     dft-nl  stress (kbar)      0.00      0.00      0.00
                                0.00      0.00      0.00
                                0.00      0.00      0.00

     TS-vdW  stress (kbar)      0.00      0.00      0.00
                                0.00      0.00      0.00
                                0.00      0.00      0.00


     Energy error            =      2.7E-05
     Gradient error          =      3.0E-05

     bfgs converged in   7 scf cycles and   6 bfgs steps
     (criteria: energy <  1.0E-04 Ry, force <  1.0E-03 Ry/Bohr)

     End of BFGS Geometry Optimization

     Final energy   =   -3104.1962825068 Ry

     File ./surface.bfgs deleted, as requested
Begin final coordinates

ATOMIC_POSITIONS (angstrom)
Au           -0.0000014748        1.7029124517        4.8359622230
Au            0.0000000000        0.0000000000       -0.0193213766
Au            1.4747770281        0.8514612112        2.4082776174
Au           -1.4747884000        4.2572957545        4.8359378674
Au           -1.4747905387        2.5543788217       -0.0193453869
Au            0.0000014748        3.4058347685        2.4082696804
Au           -2.9495557686        6.8116903482        4.8359622230
Au           -2.9495573189        5.1087498143       -0.0193453869
Au           -1.4747773571        5.9602266354        2.4082696804
Au            2.9495483502        1.7029242369        4.8359572292
Au            2.9495522199        0.0000166609       -0.0193453869
Au            4.4243204748        0.8514678810        2.4082746343
Au            1.4747854504        4.2572957545        4.8359378674
Au            1.4747905387        2.5543788217       -0.0193453869
Au            2.9495545276        3.4058374308        2.4082746343
Au           -0.0000014748        6.8117016393        4.8359378674
Au            0.0000000000        5.1087635313       -0.0193377147
Au            1.4747803067        5.9602266354        2.4082696804
Au            5.8990867002        1.7029242369        4.8359572292
Au            5.8990857801        0.0000166609       -0.0193453869
Au            7.3738639215        0.8514612112        2.4082776174
Au            4.4243175252        4.2572993775        4.8359572292
Au            4.4243190000        2.5543817656       -0.0193593421
Au            5.8990864220        3.4058374308        2.4082746343
Au            2.9495528190        6.8116903482        4.8359622230
Au            2.9495573189        5.1087498143       -0.0193453869
Au            4.4243204748        5.9602203200        2.4082776174
End final coordinates



     Writing output data file ./surface.save/

     init_run     :      1.78s CPU      1.98s WALL (       1 calls)
     electrons    :    219.83s CPU    231.46s WALL (       7 calls)
     update_pot   :      2.51s CPU      2.54s WALL (       6 calls)
     forces       :     10.04s CPU     10.66s WALL (       7 calls)
     stress       :    100.67s CPU    102.02s WALL (       7 calls)

     Called by init_run:
     wfcinit      :      1.02s CPU      1.05s WALL (       1 calls)
     wfcinit:atom :      0.01s CPU      0.01s WALL (       4 calls)
     wfcinit:wfcr :      0.94s CPU      0.96s WALL (       4 calls)
     potinit      :      0.15s CPU      0.16s WALL (       1 calls)
     hinit0       :      0.23s CPU      0.29s WALL (       1 calls)

     Called by electrons:
     c_bands      :    174.44s CPU    176.33s WALL (      58 calls)
     sum_band     :     31.90s CPU     37.63s WALL (      58 calls)
     v_of_rho     :      2.92s CPU      3.01s WALL (      58 calls)
     v_h          :      0.21s CPU      0.21s WALL (      58 calls)
     v_xc         :      3.35s CPU      3.45s WALL (      72 calls)
     newd         :     11.57s CPU     15.62s WALL (      58 calls)
     mix_rho      :      0.25s CPU      0.25s WALL (      58 calls)

     Called by c_bands:
     init_us_2    :      3.60s CPU      3.67s WALL (     524 calls)
     cegterg      :    168.07s CPU    169.80s WALL (     232 calls)

     Called by sum_band:
     sum_band:wei :      0.02s CPU      0.02s WALL (      58 calls)
     sum_band:loo :     17.18s CPU     17.42s WALL (      58 calls)
     sum_band:buf :      0.64s CPU      0.66s WALL (     232 calls)
     sum_band:ini :      1.64s CPU      1.67s WALL (     232 calls)
     sum_band:cal :      6.90s CPU      6.95s WALL (     232 calls)
     sum_band:bec :      0.26s CPU      0.27s WALL (     232 calls)
     addusdens    :     13.90s CPU     19.37s WALL (      58 calls)
     addusd:skk   :      0.19s CPU      0.20s WALL (      58 calls)
     addusd:dgemm :      6.78s CPU     12.17s WALL (      58 calls)
     addusd:qvan2 :      5.79s CPU      5.83s WALL (      58 calls)

     Called by *egterg:
     cdiaghg      :     21.98s CPU     22.13s WALL (     971 calls)
     cegterg:over :     13.41s CPU     13.52s WALL (     791 calls)
     cegterg:upda :      9.32s CPU      9.40s WALL (     791 calls)
     cegterg:last :     22.23s CPU     22.39s WALL (     584 calls)
     cdiaghg:chol :      1.07s CPU      1.08s WALL (     971 calls)
     cdiaghg:inve :      1.10s CPU      1.11s WALL (     971 calls)
     cdiaghg:para :      2.62s CPU      2.64s WALL (    1942 calls)
     h_psi        :     81.00s CPU     82.12s WALL (    1027 calls)
     s_psi        :     16.10s CPU     16.21s WALL (    1027 calls)
     g_psi        :      0.30s CPU      0.31s WALL (     791 calls)

     Called by h_psi:
     h_psi:calbec :     21.21s CPU     21.38s WALL (    1027 calls)
     vloc_psi     :     43.40s CPU     44.22s WALL (    1027 calls)
     add_vuspsi   :     15.75s CPU     15.86s WALL (    1027 calls)

     General routines
     calbec       :     33.48s CPU     33.73s WALL (    1399 calls)
     fft          :      2.34s CPU      2.41s WALL (     928 calls)
     ffts         :      0.08s CPU      0.08s WALL (     116 calls)
     fftw         :     46.38s CPU     47.23s WALL (  277262 calls)
     interpolate  :      0.15s CPU      0.16s WALL (      58 calls)

     Parallel routines
     fft_scatt_xy :      4.50s CPU      4.58s WALL (  278306 calls)
     fft_scatt_yz :     21.13s CPU     21.53s WALL (  278306 calls)

     PWSCF        :   5m36.62s CPU   5m51.54s WALL


   This run was terminated on:  17:56:18   9Dec2021            

=------------------------------------------------------------------------------=
   JOB DONE.
=------------------------------------------------------------------------------=
